<?xml version="1.0"?>
<VTKFile type="PolyData" version="1.0" byte_order="LittleEndian" header_type="UInt64">
<PolyData>
<Piece NumberOfPoints="3835" NumberOfVerts="0" NumberOfLines="0" NumberOfPolys="0">
    <Points>
        <DataArray type="Float32" NumberOfComponents="3" format="ascii">
        16.0371 8.3353 1.7092 17.7078 10.2606 1.6220 19.0141 11.4694 1.0590 17.0839 9.9151 2.0383 17.5803 10.9452 0.7438 18.5937 11.9773 5.8779 16.5018 8.6963 1.5858 17.2228 9.9109 1.3059 17.4955 7.8792 0.9088 17.0707 5.1519 5.2591 17.3519 7.5154 1.6874 15.8295 9.4120 1.5315 16.6757 8.5598 1.6904 16.6712 8.0748 2.1562 15.7273 8.6724 3.3369 15.7980 10.1833 1.3402 18.4706 10.2001 2.7365 15.4403 10.0000 0.9378 15.5330 9.9922 2.9494 18.5562 10.2114 2.6510 18.8786 10.3197 2.3285 15.3529 10.7909 4.4967 18.3375 10.3117 2.8696 18.3947 10.2708 2.8124 18.2145 10.2402 2.9927 18.2089 10.0000 2.5681 18.6473 10.4190 2.5598 18.7032 10.4227 2.5039 15.8135 11.3427 5.6451 15.5660 10.0000 1.5521 18.7709 10.4186 2.4362 18.6911 10.4788 2.5160 15.5297 10.0000 1.6979 15.4379 10.0000 0.7417 19.3853 12.2384 2.1324 17.9152 12.2893 0.6060 17.8131 12.4919 0.6060 19.3487 12.3305 2.0913 16.0510 10.5230 1.6642 15.4607 10.0000 0.6710 18.8161 11.4394 1.2900 15.0642 7.8202 4.2993 19.2291 11.8915 1.4556 17.9925 14.0000 1.2680 18.6527 11.2379 1.4482 15.3130 8.1580 2.8399 18.8484 11.9363 0.9141 16.5101 6.8906 2.8193 18.6637 11.1542 1.6290 16.2044 7.1911 1.7038 16.0141 7.0916 0.7377 16.1075 1.1555 6.0746 15.4304 5.2738 2.8281 18.7045 10.9557 2.0238 16.7720 5.4439 1.5661 19.0724 11.3579 1.2992 16.7517 8.0012 1.6812 17.1100 3.9345 3.0668 18.7005 10.8948 1.9231 18.2518 10.2983 2.9553 18.7945 10.3121 2.4126 18.7014 10.3868 2.5058 18.1315 10.2457 1.9239 16.9450 9.6189 1.0054 16.8570 9.3695 1.6398 18.1093 10.2575 3.0979 16.3962 8.6167 2.7269 16.4749 8.6597 2.1376 18.3324 9.0286 1.8045 18.4651 10.3698 2.7420 18.1176 10.0000 2.9969 18.7761 9.3713 2.5150 18.4777 8.4962 2.6001 20.7677 4.1982 5.3226 18.7039 11.9837 5.6261 18.6831 11.0113 2.0598 16.1784 7.3968 4.2314 18.4114 10.5519 2.7957 16.1207 7.7574 3.8956 18.2094 11.1628 2.9977 18.7160 10.7027 2.4911 18.1515 11.1710 8.3940 16.7062 8.8526 2.1757 16.0684 14.4491 8.3940 18.7639 11.3747 1.3439 18.2881 10.6584 2.9190 18.2458 11.4683 8.3940 16.1780 7.5428 3.9044 16.2926 8.2137 2.9350 18.7954 10.7180 2.3450 17.0091 7.3981 3.9256 17.0114 8.7941 1.7078 18.7661 11.3994 1.3225 16.4442 9.6873 1.1871 18.4878 10.5528 2.7193 18.0150 13.9127 8.3940 18.2936 13.9913 8.3940 18.2805 13.9275 8.3940 15.3753 14.2618 8.3940 17.3580 8.5689 1.1015 17.4970 10.8421 8.3940 17.7613 8.9018 1.4839 16.6501 3.7055 5.8490 18.3526 10.5827 2.8545 18.5349 12.9400 8.3940 18.5336 10.7721 2.6735 18.1463 8.8831 1.1169 17.9955 13.8382 8.3940 17.5908 6.5742 5.3115 17.9836 14.1943 8.3940 15.1740 14.0127 8.3940 17.8549 7.1214 4.0184 18.5453 8.2895 2.6269 19.1285 6.0558 4.2227 17.5308 10.6116 8.3940 19.2331 11.8707 1.5294 18.8975 11.6859 0.7877 18.7100 8.3755 1.1863 19.4538 5.7159 4.7342 18.2933 10.7715 2.9138 18.6296 12.5078 8.3940 18.5410 13.6373 8.3940 15.4443 13.7443 8.3940 15.5978 10.8967 8.3940 18.7056 12.5413 8.3940 18.6915 13.1294 8.3940 15.4675 14.3334 8.3940 18.1753 10.7740 3.0318 18.5836 8.5923 1.8272 18.6780 13.1972 8.3940 15.1544 11.0347 8.3940 18.3599 11.1187 2.8472 18.6795 9.5478 1.3694 18.3722 10.5938 2.8349 18.4509 11.9615 8.3940 18.0178 11.1408 8.3940 20.4875 2.6181 6.2918 18.2008 8.4486 2.7922 18.6668 7.6128 3.7769 15.2438 10.7637 1.7754 17.9541 11.1326 3.2530 17.1818 10.0000 1.5591 18.2845 11.1482 2.9227 18.4326 10.6923 2.7745 16.8467 10.0000 2.1308 19.3223 7.7808 5.1657 17.9869 11.1137 3.2202 17.7783 10.7160 3.4288 16.7422 10.6346 1.4672 17.4081 10.9404 3.7990 16.8003 10.0000 3.8800 17.7252 11.0023 8.3940 15.2541 13.8696 8.3940 17.4955 11.1878 3.7116 17.3735 11.8729 3.8337 18.1359 10.4025 3.0712 18.4977 10.7286 2.7095 16.6712 10.7509 8.3940 15.6111 10.7543 8.3940 16.7684 10.6376 8.3940 18.4696 7.1328 5.2101 17.9866 9.7460 3.8521 15.8559 10.9873 8.3940 18.3800 13.7030 8.3940 15.2942 10.0000 2.4371 16.6228 14.5249 8.3940 17.5016 14.0802 8.3940 15.1654 10.0000 1.6015 15.4415 10.0000 2.3957 18.4972 6.5223 5.9949 16.7848 14.5777 8.3940 17.1495 14.2607 8.3940 15.5203 9.1199 4.0623 18.4618 10.5800 2.7453 17.3282 10.5820 8.3940 17.8179 10.2783 3.3892 15.2201 11.6117 8.3940 19.0325 5.0537 7.2269 16.4693 11.5855 6.4107 15.9655 10.7281 8.3940 15.8711 10.6941 8.3940 18.3765 11.5086 8.3940 18.3103 10.6721 2.8968 17.4513 4.9077 6.8506 18.2038 10.7997 3.0033 16.5254 10.5466 8.3940 17.9530 11.0205 8.3940 17.2985 10.7029 8.3940 17.8979 11.4266 8.3940 18.6834 12.4939 8.3940 16.8177 11.0156 4.3894 17.8472 10.6075 3.3599 17.4332 10.7300 8.3940 16.1198 10.9587 8.3940 16.7750 14.5622 8.3940 16.1368 14.4813 8.3940 18.2487 11.8682 8.3940 18.0819 11.2969 3.1252 18.0283 10.7939 3.1788 17.7169 10.8390 3.4902 15.0444 11.5422 1.6411 17.9652 11.0126 3.2419 17.8955 10.4851 3.3116 18.3225 13.0221 8.3940 17.5308 14.2246 8.3940 16.3316 10.5837 8.3940 15.3752 10.0000 1.0999 15.5287 11.5621 4.8563 16.4715 8.5936 5.5536 16.5500 10.6239 8.3940 17.3510 10.9024 4.5440 15.1188 12.0206 6.9627 16.1302 12.2762 6.6275 18.2705 10.7696 2.9367 17.2563 14.3599 8.3940 18.2502 11.5668 8.3940 18.1848 10.6534 3.0223 17.0762 10.8445 4.1344 15.9854 14.1926 8.3940 15.5073 9.9629 1.9630 18.2666 10.3729 2.9405 18.1970 11.1821 3.0101 18.2191 11.6050 8.3940 15.5191 9.9614 2.0684 17.9947 10.4918 3.2124 17.7161 10.9627 3.4910 16.0341 9.3008 4.1806 18.3739 13.3221 8.3940 18.5249 12.9190 8.3940 16.0022 11.0997 8.3940 17.2737 14.3940 8.3940 15.5456 11.1226 6.2969 17.9775 11.1746 3.2296 16.8699 14.1298 8.3940 17.1343 10.8042 8.3940 18.1949 11.6828 8.3940 18.0445 11.4104 8.3940 15.1714 13.8312 8.3940 15.0073 10.0000 2.2167 17.9673 10.8574 3.2398 17.8783 10.3429 3.3288 18.4428 10.7862 2.7643 18.1340 10.9121 3.0731 17.8474 10.7738 3.3597 18.1880 10.3198 3.0191 17.9898 11.2105 3.2173 17.8491 11.0464 3.3580 17.8653 11.2012 3.3418 17.8507 10.8124 3.3564 15.0915 7.9547 1.0748 17.8493 10.6253 3.3578 18.2902 10.7335 2.9169 15.5639 7.6886 2.1616 17.9057 11.0914 3.3014 17.6748 10.8346 3.5324 15.8810 8.9761 1.0421 15.0279 8.6087 2.2289 16.8171 10.0000 1.8269 18.0269 10.8869 3.1802 18.0924 10.8445 3.1148 18.0811 10.8615 3.1260 17.9871 10.2937 3.2200 15.1863 10.8725 1.7557 18.0792 10.8738 3.1279 18.1342 11.2752 3.0730 17.9435 10.7549 3.2636 16.1619 2.0152 5.7883 18.2607 10.5324 2.9464 17.8576 10.1692 3.3495 15.1542 8.3043 1.2872 15.3222 6.9726 2.7522 18.4345 10.5413 2.7726 18.0571 11.2328 3.1500 18.0969 10.6881 3.1102 15.4329 13.5665 8.3940 18.0304 11.2556 8.3940 18.5404 12.2253 8.3940 15.2776 13.6512 8.3940 16.9682 14.1083 8.3940 18.5144 12.7115 8.3940 17.8510 11.0566 8.3940 18.3300 10.6110 2.8771 18.2585 10.3761 2.9487 18.2549 10.6810 2.9522 17.5457 14.2284 8.3940 17.6827 13.9387 8.3940 16.3281 14.4312 8.3940 17.9801 11.3480 3.2270 15.4276 13.6926 8.3940 16.8085 11.0189 8.3940 15.3494 8.7036 2.3064 18.1476 10.2062 3.0595 15.3501 10.0704 1.4438 16.9711 10.6614 8.3940 15.6891 14.0578 8.3940 15.3746 13.8523 8.3940 15.7039 14.0416 8.3940 15.4311 11.4004 8.3940 18.2025 12.4632 8.3940 18.2441 10.9980 2.9630 15.3436 13.5585 8.3940 18.0794 13.4076 8.3940 18.1971 13.1639 8.3940 15.7527 11.2608 8.3940 18.2086 12.5109 8.3940 15.9293 11.1048 8.3940 18.0447 10.7965 3.1624 15.0475 10.3689 1.7766 18.3278 10.5706 2.8793 17.9955 11.0131 3.2116 17.7211 13.6729 8.3940 15.3733 11.6339 8.3940 18.1615 12.0947 8.3940 18.1759 13.6326 8.3940 17.4622 11.1774 8.3940 15.4643 11.4766 8.3940 17.9111 11.6934 8.3940 15.5229 9.1013 1.2238 15.4653 8.5161 2.1777 18.2448 11.9054 8.3940 18.0430 10.4711 3.1641 16.6301 10.8519 8.3940 15.8271 11.2470 8.3940 17.9480 11.1943 3.2591 18.2160 10.2641 2.9911 15.9934 14.1764 8.3940 18.1959 12.4340 8.3940 18.1032 13.3602 8.3940 15.2083 13.1871 8.3940 17.7118 10.2572 3.4953 15.6029 10.9184 8.3940 15.3163 13.3035 8.3940 18.1712 11.2575 3.0359 15.6377 10.9217 8.3940 16.9293 14.0829 8.3940 15.7848 10.9406 8.3940 15.8687 13.7985 8.3940 16.9805 14.2643 8.3940 15.2626 11.3485 8.3940 17.3035 14.0320 8.3940 17.9430 11.2543 3.2641 18.4061 12.5652 8.3940 18.4529 12.3247 8.3940 17.1720 10.8522 8.3940 17.1927 10.8443 8.3940 17.2258 11.1476 8.3940 18.0718 12.0556 8.3940 17.9846 11.4761 8.3940 15.4459 11.3942 8.3940 17.8333 10.9538 3.3738 18.0562 10.8434 3.1509 17.1317 13.9569 8.3940 15.4597 11.4372 8.3940 15.7362 13.7465 8.3940 18.0135 10.6102 3.1937 17.0055 13.9903 8.3940 18.1712 12.4528 8.3940 15.9368 10.8861 8.3940 18.0221 11.4644 8.3940 17.6763 13.4956 8.3940 18.0319 13.0271 8.3940 15.2436 11.5112 8.3940 16.8156 14.2757 8.3940 15.9445 5.5855 3.6131 16.3829 10.8399 8.3940 15.9115 13.7561 8.3940 17.9513 13.6089 8.3940 17.7493 13.6845 8.3940 15.9868 13.9019 8.3940 15.7144 11.3545 8.3940 15.7910 13.7420 8.3940 18.1276 12.5981 8.3940 15.7454 7.0255 3.2884 17.7439 11.5810 8.3940 18.3996 12.2644 8.3940 16.1910 5.3601 2.6452 16.6393 10.9536 8.3940 18.3229 12.0010 8.3940 17.2283 14.2197 8.3940 16.1998 14.1409 8.3940 17.9856 13.6964 8.3940 18.0360 12.3647 8.3940 15.2164 12.8586 8.3940 16.5819 8.5461 0.9699 17.7924 10.2733 3.4147 15.6761 11.1108 8.3940 15.2797 11.8377 8.3940 18.2615 13.0963 8.3940 15.4097 11.3259 8.3940 15.1930 13.4928 8.3940 16.6456 4.4322 2.3303 18.1584 12.3311 8.3940 16.8076 10.8106 8.3940 18.0618 10.0705 3.1453 16.9406 7.1710 3.1711 15.3027 11.4431 8.3940 16.5577 7.8757 2.1696 18.2683 13.2005 8.3940 15.2700 13.6275 8.3940 18.0614 13.2095 8.3940 16.1681 14.2435 8.3940 15.5187 11.6635 8.3940 17.9756 11.7415 8.3940 16.4040 14.2212 8.3940 16.2823 10.9104 8.3940 17.9450 13.3345 8.3940 16.8283 13.9904 8.3940 16.3517 10.1190 1.6644 18.1971 12.4807 8.3940 17.4434 11.2022 8.3940 17.5884 11.3387 8.3940 17.3031 13.7838 8.3940 16.1904 13.8213 8.3940 17.6732 13.9120 8.3940 18.1217 11.7579 8.3940 16.1956 2.7529 5.9373 17.8722 11.0638 3.3349 18.2731 10.9586 2.9340 17.9999 10.5245 3.2072 17.7821 10.3141 3.4251 17.5348 11.0613 3.6723 18.1507 11.2951 3.0564 17.9694 10.4426 3.2377 17.9656 10.8370 3.2415 17.5128 11.1847 3.6943 17.
[...]
    <PointData>
        <DataArray type="Float32" Name="tag" format="ascii">
            131.0000 2191.0000 2475.0000 3271.0000 4643.0000 4891.0000 5703.0000 5815.0000 8263.0000 8603.0000 9027.0000 9407.0000 9963.0000 10311.0000 10611.0000 11427.0000 11439.0000 11759.0000 12211.0000 12395.0000 12411.0000 12631.0000 13023.0000 13875.0000 14151.0000 14255.0000 14327.0000 14491.0000 14763.0000 17007.0000 17235.0000 17919.0000 19547.0000 20267.0000 21147.0000 23367.0000 23951.0000 24743.0000 25151.0000 25303.0000 30395.0000 30607.0000 30863.0000 32111.0000 33435.0000 33583.0000 35675.0000 35963.0000 35995.0000 36935.0000 38591.0000 39383.0000 39655.0000 39943.0000 40963.0000 41515.0000 41567.0000 41895.0000 42015.0000 43367.0000 43535.0000 43903.0000 45395.0000 45931.0000 46091.0000 46347.0000 46683.0000 50003.0000 64467.0000 65415.0000 66307.0000 63635.0000 65379.0000 66299.0000 57147.0000 47043.0000 47311.0000 47411.0000 48039.0000 48219.0000 48255.0000 48363.0000 48551.0000 49155.0000 49643.0000 49771.0000 50039.0000 50047.0000 50311.0000 50675.0000 50735.0000 50815.0000 51271.0000 51799.0000 52923.0000 53515.0000 53535.0000 53539.0000 54415.0000 55015.0000 55283.0000 55623.0000 56307.0000 56535.0000 57183.0000 57487.0000 57787.0000 58003.0000 58471.0000 58875.0000 59667.0000 59927.0000 59947.0000 60495.0000 60563.0000 60675.0000 61407.0000 62139.0000 62419.0000 62599.0000 62951.0000 63815.0000 63855.0000 63911.0000 63927.0000 64587.0000 64607.0000 64683.0000 64803.0000 65551.0000 65579.0000 65975.0000 66003.0000 66423.0000 66439.0000 66479.0000 66523.0000 66703.0000 66955.0000 85919.0000 82479.0000 80691.0000 72223.0000 82451.0000 74655.0000 72203.0000 77203.0000 71559.0000 75571.0000 80583.0000 84911.0000 67267.0000 68047.0000 68511.0000 68587.0000 68607.0000 69067.0000 69479.0000 69487.0000 69491.0000 69651.0000 69995.0000 70879.0000 70911.0000 71147.0000 71579.0000 71627.0000 71799.0000 71955.0000 72047.0000 72307.0000 72331.0000 72379.0000 72523.0000 73115.0000 73623.0000 73947.0000 74099.0000 74259.0000 74755.0000 74783.0000 74839.0000 74955.0000 75171.0000 75267.0000 75595.0000 75631.0000 75651.0000 75683.0000 75719.0000 76459.0000 77059.0000 77315.0000 77351.0000 77383.0000 77399.0000 77451.0000 77459.0000 78239.0000 78543.0000 79439.0000 79503.0000 79527.0000 79911.0000 79967.0000 79999.0000 80091.0000 80435.0000 80563.0000 80831.0000 81035.0000 81067.0000 81147.0000 81175.0000 81735.0000 81759.0000 82155.0000 82235.0000 82543.0000 82731.0000 83019.0000 83143.0000 83415.0000 83623.0000 83867.0000 84607.0000 84667.0000 85127.0000 85171.0000 85227.0000 85251.0000 85379.0000 85487.0000 85955.0000 85959.0000 86047.0000 86067.0000 86071.0000 86155.0000 91619.0000 99303.0000 103835.0000 98515.0000 105495.0000 97147.0000 91539.0000 105467.0000 99215.0000 99207.0000 101819.0000 101803.0000 100059.0000 102771.0000 99107.0000 93675.0000 100175.0000 97043.0000 106195.0000 107011.0000 102715.0000 100839.0000 101699.0000 89959.0000 95751.0000 101679.0000 100807.0000 102899.0000 101655.0000 99935.0000 99923.0000 102635.0000 101607.0000 103515.0000 105207.0000 86863.0000 86895.0000 86915.0000 86931.0000 86979.0000 86999.0000 87807.0000 88039.0000 88083.0000 88195.0000 88559.0000 88663.0000 88727.0000 89095.0000 89423.0000 89475.0000 89511.0000 89731.0000 89787.0000 90231.0000 90283.0000 90287.0000 90303.0000 90331.0000 90363.0000 90383.0000 90899.0000 90915.0000 90963.0000 91771.0000 91823.0000 91843.0000 91967.0000 92023.0000 92115.0000 92143.0000 92415.0000 93151.0000 93203.0000 93219.0000 93343.0000 93959.0000 93983.0000 94071.0000 94087.0000 94103.0000 94379.0000 94623.0000 94655.0000 94791.0000 95035.0000 95295.0000 95307.0000 95419.0000 95427.0000 95515.0000 96019.0000 96055.0000 96239.0000 96555.0000 96571.0000 96643.0000 96667.0000 96679.0000 96755.0000 96771.0000 96891.0000 97871.0000 97887.0000 97919.0000 97923.0000 97939.0000 98015.0000 98019.0000 98615.0000 98847.0000 98879.0000 99327.0000 99611.0000 99615.0000 99647.0000 100215.0000 100295.0000 100303.0000 100319.0000 100331.0000 100383.0000 100427.0000 100479.0000 101067.0000 101083.0000 101099.0000 101127.0000 101167.0000 101195.0000 101199.0000 101203.0000 101279.0000 101495.0000 101991.0000 102159.0000 102207.0000 102287.0000 102335.0000 103019.0000 103031.0000 103039.0000 103075.0000 103175.0000 103407.0000 103475.0000 103955.0000 103959.0000 104007.0000 104047.0000 104059.0000 104115.0000 104159.0000 104183.0000 104227.0000 104315.0000 104763.0000 104891.0000 104903.0000 104915.0000 104923.0000 104935.0000 104943.0000 104979.0000 105603.0000 105639.0000 105775.0000 105795.0000 105843.0000 106419.0000 106487.0000 106531.0000 106583.0000 106639.0000 106667.0000 106683.0000 106723.0000 106835.0000 120087.0000 118583.0000 110443.0000 121587.0000 120071.0000 121423.0000 109655.0000 116319.0000 122951.0000 113115.0000 117623.0000 121583.0000 120615.0000 123667.0000 120599.0000 122139.0000 109559.0000 116047.0000 115271.0000 113739.0000 124379.0000 119071.0000 111139.0000 111951.0000 112803.0000 109511.0000 117011.0000 111947.0000 120551.0000 109731.0000 111415.0000 112259.0000 113939.0000 124359.0000 111103.0000 111923.0000 111919.0000 112767.0000 111903.0000 112759.0000 107835.0000 112751.0000 124351.0000 118519.0000 107815.0000 120519.0000 111871.0000 120011.0000 111067.0000 123519.0000 118179.0000 124311.0000 114759.0000 118167.0000 116599.0000 110227.0000 115931.0000 124287.0000 125959.0000 115923.0000 115919.0000 125063.0000 119699.0000 114371.0000 120467.0000 125051.0000 120463.0000 111023.0000 118131.0000 113603.0000 110191.0000 118935.0000 119659.0000 123451.0000 112655.0000 122775.0000 117423.0000 118927.0000 119647.0000 116519.0000 118115.0000 112647.0000 121143.0000 121127.0000 124231.0000 118095.0000 109383.0000 111003.0000 122731.0000 124199.0000 119615.0000 118079.0000 118075.0000 126675.0000 118879.0000 114323.0000 118871.0000 124183.0000 124927.0000 124179.0000 118859.0000 112591.0000 112587.0000 122671.0000 115831.0000 118847.0000 118843.0000 114291.0000 110967.0000 122639.0000 118039.0000 111719.0000 126603.0000 112551.0000 120331.0000 122635.0000 118835.0000 109327.0000 121079.0000 125771.0000 111675.0000 119515.0000 118803.0000 118011.0000 122615.0000 125743.0000 120291.0000 125739.0000 124535.0000 118779.0000 124087.0000 121507.0000 122259.0000 113883.0000 118447.0000 115399.0000 116919.0000 118419.0000 116143.0000 126155.0000 123747.0000 119191.0000 119179.0000 122223.0000 107263.0000 107295.0000 107339.0000 107391.0000 107423.0000 107483.0000 107555.0000 108091.0000 108099.0000 108195.0000 108203.0000 108231.0000 108251.0000 108255.0000 108371.0000 108451.0000 108459.0000 109031.0000 109035.0000 109119.0000 109191.0000 109791.0000 109855.0000 109911.0000 109983.0000 110667.0000 110691.0000 110759.0000 110803.0000 110831.0000 110899.0000 110903.0000 111467.0000 111475.0000 111503.0000 111515.0000 111607.0000 111623.0000 111655.0000 113155.0000 113203.0000 113419.0000 113447.0000 113483.0000 113487.0000 114039.0000 114087.0000 114915.0000 114927.0000 114943.0000 114991.0000 115667.0000 115767.0000 116331.0000 116391.0000 116419.0000 117167.0000 117311.0000 117855.0000 117967.0000 118591.0000 118611.0000 118719.0000 118739.0000 119419.0000 119447.0000 120111.0000 120135.0000 120151.0000 120183.0000 120243.0000 120251.0000 121031.0000 121611.0000 121643.0000 121651.0000 121743.0000 122375.0000 122479.0000 122503.0000 122539.0000 123099.0000 123127.0000 123131.0000 123159.0000 123203.0000 123215.0000 123219.0000 123227.0000 123259.0000 123939.0000 124043.0000 124659.0000 124663.0000 124743.0000 124747.0000 124791.0000 124799.0000 124823.0000 125439.0000 125483.0000 125547.0000 125603.0000 125655.0000 125675.0000 126351.0000 126383.0000 126427.0000 126443.0000 126479.0000 140835.0000 137607.0000 127907.0000 137603.0000 146967.0000 139287.0000 136687.0000 135659.0000 140819.0000 129559.0000 130243.0000 136563.0000 132915.0000 128611.0000 135619.0000 131191.0000 131959.0000 139195.0000 146823.0000 130987.0000 130215.0000 130983.0000 145879.0000 130207.0000 135751.0000 130971.0000 130195.0000 128563.0000 127731.0000 135591.0000 129547.0000 136515.0000 140795.0000 133731.0000 128547.0000 136511.0000 134667.0000 137411.0000 142315.0000 142311.0000 130175.0000 146759.0000 129335.0000 130935.0000 128699.0000 135507.0000 128691.0000 131159.0000 136479.0000 145047.0000 132851.0000 138307.0000 135715.0000 145815.0000 131131.0000 135499.0000 127659.0000 138447.0000 146735.0000 127639.0000 143111.0000 130907.0000 146903.0000 143235.0000 134603.0000 145019.0000 130883.0000 140571.0000 136431.0000 129239.0000 132787.0000 137515.0000 129223.0000 130847.0000 145763.0000 130079.0000 131807.0000 129175.0000 134535.0000 140543.0000 136387.0000 129151.0000 129147.0000 134499.0000 130015.0000 133555.0000 140515.0000 127495.0000 135355.0000 132699.0000 139783.0000 128347.0000 128339.0000 135331.0000 136319.0000 134455.0000 132687.0000 129071.0000 134423.0000 127443.0000 134395.0000 133483.0000 141259.0000 137295.0000 143831.0000 144999.0000 140455.0000 146619.0000 142159.0000 140451.0000 146611.0000 129943.0000 132643.0000 143815.0000 129935.0000 135259.0000 131651.0000 129919.0000 127395.0000 130631.0000 145639.0000 139651.0000 139647.0000 142919.0000 140407.0000 129891.0000 145607.0000 143759.0000 134283.0000 146567.0000 132555.0000 140379.0000 131583.0000 142091.0000 142891.0000 129007.0000 130567.0000 138051.0000 143731.0000 129859.0000 145547.0000 142859.0000 134259.0000 132507.0000 128979.0000 142823.0000 135139.0000 139583.0000 146515.0000 128967.0000 140323.0000 138895.0000 129495.0000 145479.0000 140307.0000 145475.0000 142775.0000 137135.0000 127299.0000 141115.0000 140303.0000 136147.0000 136143.0000 142003.0000 138007.0000 145459.0000 136135.0000 130495.0000 144575.0000 133359.0000 135675.0000 144563.0000 145431.0000 145927.0000 144551.0000 127103.0000 127123.0000 127175.0000 127255.0000 127259.0000 128059.0000 128067.0000 128115.0000 128795.0000 128847.0000 129579.0000 129623.0000 129687.0000 129799.0000 130475.0000 131275.0000 131279.0000 131391.0000 131415.0000 132187.0000 132207.0000 132211.0000 132291.0000 132307.0000 132423.0000 132439.0000 133063.0000 133111.0000 133123.0000 133211.0000 133243.0000 133275.0000 133339.0000 134055.0000 134059.0000 134067.0000 134147.0000 134151.0000 134899.0000 134919.0000 134923.0000 134927.0000 134947.0000 134991.0000 135787.0000 135835.0000 135839.0000 135891.0000 135987.0000 135999.0000 136003.0000 136007.0000 136027.0000 136055.0000 136087.0000 136103.0000 136727.0000 136755.0000 136935.0000 136943.0000 137687.0000 137691.0000 137727.0000 137771.0000 137843.0000 137867.0000 137903.0000 137975.0000 138547.0000 138683.0000 138703.0000 138711.0000 138751.0000 138787.0000 138791.0000 138839.0000 139315.0000 139367.0000 139395.0000 139463.0000 139491.0000 140103.0000 140123.0000 140147.0000 140171.0000 140839.0000 140879.0000 140919.0000 140943.0000 141047.0000 141631.0000 141643.0000 141659.0000 141715.0000 141763.0000 141775.0000 141819.0000 141823.0000 141855.0000 141867.0000 141879.0000 142535.0000 142631.0000 142691.0000 142727.0000 143375.0000 143455.0000 143511.0000 143539.0000 143583.0000 143635.0000 143639.0000 144255.0000 144259.0000 144415.0000 144479.0000 144519.0000 145183.0000 145187.0000 145287.0000 145295.0000 145315.0000 146107.0000 146147.0000 146191.0000 146207.0000 146211.0000 146247.0000 146251.0000 146271.0000 146323.0000 146419.0000 160919.0000 152583.0000 164643.0000 151543.0000 159119.0000 160863.0000 153407.0000 153403.0000 147891.0000 156203.0000 147731.0000 171651.0000 147719.0000 160827.0000 160823.0000 168315.0000 148803.0000 147839.0000 155195.0000 158139.0000 156275.0000 147819.0000 151427.0000 162635.0000 150499.0000 168231.0000 157071.0000 152491.0000 166319.0000 154171.0000 151259.0000 152251.0000 166239.0000 152239.0000 157871.0000 148495.0000 152223.0000 151211.0000 148479.0000 152203.0000 168163.0000 164343.0000 159719.0000 157803.0000 155915.0000 149359.0000 149355.0000 151151.0000 155899.0000 156915.0000 151135.0000 152151.0000 156903.0000 158735.0000 147383.0000 158719.0000 149283.0000 171451.0000 150235.0000 150227.0000 151103.0000 160567.0000 160563.0000 152115.0000 154891.0000 156843.0000 169699.0000 150207.0000 153015.0000 157683.0000 160535.0000 147339.0000 171391.0000 148327.0000 164215.0000 158675.0000 149227.0000 154871.0000 152995.0000 152103.0000 158667.0000 158663.0000 160507.0000 151079.0000 166099.0000 152099.0000 160503.0000 154863.0000 166095.0000 162339.0000 160491.0000 147015.0000 147059.0000 147103.0000 147143.0000 147211.0000 147219.0000 147223.0000 147235.0000 147239.0000 147283.0000 147287.0000 147983.0000 148051.0000 148067.0000 148199.0000 148271.0000 148275.0000 148867.0000 148995.0000 149003.0000 149087.0000 149103.0000 149111.0000 149131.0000 149179.0000 149219.0000 149903.0000 149959.0000 149983.0000 149991.0000 150019.0000 150079.0000 150867.0000 150879.0000 150911.0000 150923.0000 150935.0000 150975.0000 150999.0000 151003.0000 151699.0000 151723.0000 151823.0000 151839.0000 151935.0000 151963.0000 151971.0000 151983.0000 151999.0000 152003.0000 152039.0000 152087.0000 152595.0000 152599.0000 152631.0000 152643.0000 152667.0000 152695.0000 152795.0000 152863.0000 152867.0000 152891.0000 152895.0000 152971.0000 152975.0000 153535.0000 153651.0000 153735.0000 153827.0000 153831.0000 153851.0000 153943.0000 153959.0000 153963.0000 154519.0000 154587.0000 154707.0000 154719.0000 154743.0000 154819.0000 155431.0000 155447.0000 155491.0000 155663.0000 155675.0000 155711.0000 156375.0000 156531.0000 156587.0000 156607.0000 156687.0000 156699.0000 156707.0000 156711.0000 156799.0000 157275.0000 157287.0000 157319.0000 157371.0000 157411.0000 157427.0000 157435.0000 157447.0000 157471.0000 157579.0000 158239.0000 158259.0000 158267.0000 158523.0000 158527.0000 158603.0000 158655.0000 159143.0000 159303.0000 159331.0000 159371.0000 159387.0000 159395.0000 159435.0000 159503.0000 159531.0000 159559.0000 160095.0000 160111.0000 160151.0000 160207.0000 160303.0000 160311.0000 160395.0000 160411.0000 160415.0000 160459.0000 161031.0000 161107.0000 161115.0000 161163.0000 161195.0000 161211.0000 161219.0000 161311.0000 161387.0000 161439.0000 162059.0000 162935.0000 162987.0000 163031.0000 163051.0000 163103.0000 163147.0000 163203.0000 163315.0000 163331.0000 163395.0000 163443.0000 163787.0000 163875.0000 164127.0000 164759.0000 164767.0000 164915.0000 164939.0000 165035.0000 165067.0000 165099.0000 165167.0000 165171.0000 165207.0000 165299.0000 165767.0000 165771.0000 165855.0000 165863.0000 165903.0000 166679.0000 166791.0000 166859.0000 166903.0000 167059.0000 167471.0000 167727.0000 167747.0000 167803.0000 168611.0000 168619.0000 168935.0000 169147.0000 169599.0000 170159.0000 170199.0000 170207.0000 170211.0000 170227.0000 170299.0000 170383.0000 170527.0000 170563.0000 170571.0000 170823.0000 171139.0000 171247.0000 171259.0000 171263.0000 171811.0000 171823.0000 171827.0000 171967.0000 171983.0000 172083.0000 172103.0000 172107.0000 172111.0000 172115.0000 172119.0000 172163.0000 172219.0000 172263.0000 172639.0000 172711.0000 172799.0000 172855.0000 197319.0000 197311.0000 203239.0000 174991.0000 213711.0000 205907.0000 189911.0000 212091.0000 201727.0000 207667.0000 179895.0000 192599.0000 186427.0000 213439.0000 194039.0000 207371.0000 187983.0000 195523.0000 178207.0000 201451.0000 192575.0000 202911.0000 208843.0000 213427.0000 208831.0000 202899.0000 203159.0000 198475.0000 198467.0000 207335.0000 201707.0000 201407.0000 189851.0000 181535.0000 174915.0000 204307.0000 204655.0000 192523.0000 204651.0000 195771.0000 187947.0000 205851.0000 192487.0000 174895.0000 191331.0000 186291.0000 174883.0000 190907.0000 204291.0000 200207.0000 183247.0000 208763.0000 213675.0000 196951.0000 179811.0000 206107.0000 198699.0000 174867.0000 192415.0000 195375.0000 210279.0000 187895.0000 213335.0000 210503.0000 191295.0000 186255.0000 176559.0000 200167.0000 183031.0000 210219.0000 201259.0000 181615.0000 184871.0000 183019.0000 208983.0000 183015.0000 204223.0000 204531.0000 195671.0000 195335.0000 184627.0000 192743.0000 213631.0000 179743.0000 210179.0000 196879.0000 211955.0000 189471.0000 183003.0000 199871.0000 186195.0000 204507.0000 181395.0000 201627.0000 196859.0000 197195.0000 202751.0000 203075.0000 201619.0000 176491.0000 197187.0000 184587.0000 195295.0000 201183.0000 204191.0000 202731.0000 178027.0000 178023.0000 213247.0000 174731.0000 194151.0000 197155.0000 213231.0000 207127.0000 174715.0000 207123.0000 178003.0000 200131.0000 208631.0000 199807.0000 193771.0000 205663.0000 213575.0000 192311.0000 195227.0000 174679.0000 206011.0000 198259.0000 181291.0000 179623.0000 198235.0000 198631.0000 187739.0000 189371.0000 193719.0000 208567.0000 181599.0000 201107.0000 184851.0000 186091.0000 196779.0000 181263.0000 179579.0000 210099.0000 208547.0000 210091.0000 205627.0000 208539.0000 211515.0000 187679.0000 207491.0000 188087.0000 203023.0000 204419.0000 198575.0000 201475.0000 205935.0000 173447.0000 173587.0000 173703.0000 173707.0000 173763.0000 173907.0000 174515.0000 175163.0000 175171.0000 175251.0000 175259.0000 175283.0000 175351.0000 175399.0000 175407.0000 175455.0000 175535.0000 175551.0000 213507.0000 176155.0000 176171.0000 176191.0000 176235.0000 176343.0000 176775.0000 176779.0000 176787.0000 176947.0000 176995.0000 177063.0000 177091.0000 177095.0000 177403.0000 177663.0000 177683.0000 177899.0000 178423.0000 178443.0000 178515.0000 178583.0000 178635.0000 178743.0000 178799.0000 179251.0000 179495.0000 180083.0000 180247.0000 180279.0000 180287.0000 180295.0000 180319.0000 180339.0000 180447.0000 180455.0000 180543.0000 180759.0000 180883.0000 180931.0000 181111.0000 181819.0000 182039.0000 182091.0000 182263.0000 182307.0000 182487.0000 183371.0000 183383.0000 183435.0000 183603.0000 183627.0000 183683.0000 183687.0000 183783.0000 183935.0000 184235.0000 184403.0000 184431.0000 184983.0000 185003.0000 185047.0000 185143.0000 185303.0000 185335.0000 185351.0000 185375.0000 185395.0000 185483.0000 185631.0000 185859.0000 186931.0000 187079.0000 187111.0000 187151.0000 187251.0000 187291.0000 187471.0000 187487.0000 187539.0000 187563.0000 188279.0000 188391.0000 188443.0000 188527.0000 188583.0000 188643.0000 188711.0000 188819.0000 189115.0000 189143.0000 189219.0000 189299.0000 189935.0000 189967.0000 190083.0000 190191.0000 190267.0000 190291.0000 190355.0000 190359.0000 190395.0000 190407.0000 190615.0000 191415.0000 191475.0000 191487.0000 191523.0000 191579.0000 191703.0000 191771.0000 191807.0000 191935.0000 191955.0000 191967.0000 191983.0000 192175.0000 193007.0000 193043.0000 193091.0000 193147.0000 193155.0000 193263.0000 193271.0000 193275.0000 193339.0000 193343.0000 193371.0000 193399.0000 193403.0000 194395.0000 194435.0000 194599.0000 194623.0000 194647.0000 194679.0000 194747.0000 194831.0000 194871.0000 194907.0000 194991.0000 195083.0000 195119.0000 195147.0000 195859.0000 195887.0000 195919.0000 196071.0000 196127.0000 196243.0000 196263.0000 196287.0000 196355.0000 196363.0000 196403.0000 197447.0000 197491.0000 197543.0000 197591.0000 197687.0000 197775.0000 197859.0000 197931.0000 197943.0000 197947.0000 197971.0000 198087.0000 198091.0000 198991.0000 199051.0000 199083.0000 199087.0000 199091.0000 199099.0000 199127.0000 199195.0000 199227.0000 199395.0000 199483.0000 199507.0000 199599.0000 199615.0000 199647.0000 200303.0000 200331.0000 200387.0000 200451.0000 200471.0000 200519.0000 200547.0000 200603.0000 200635.0000 200639.0000 200643.0000 200847.0000 201027.0000 201771.0000 201823.0000 201871.0000 202035.0000 202055.0000 202111.0000 202163.0000 202195.0000 202219.0000 202283.0000 202315.0000 202515.0000 203267.0000 203371.0000 203479.0000 203495.0000 203607.0000 203611.0000 203639.0000 203799.0000 203879.0000 203975.0000 204067.0000 204775.0000 204867.0000 204887.0000 204895.0000 204927.0000 2