<?xml version="1.0"?>
<VTKFile type="RectilinearGrid" version="1.0" byte_order="LittleEndian" header_type="UInt64">
<RectilinearGrid WholeExtent="25 50 0 25 0 15">
<Piece Extent="25 50 0 25 0 15">
<Coordinates>
<DataArray type="Float64" Name="Array X-Axis" format="ascii" RangeMin="15.0" RangeMax="30.0">
15.0 15.6 16.2 16.8 17.4 18.0 18.6 19.2 19.8 20.4 21.0 21.6 22.2 22.8 23.4 24.0 24.6 25.2 25.8 26.4 27.0 27.6 28.2 28.8 29.4 30.0 
</DataArray>
<DataArray type="Float64" Name="Array Y-Axis" format="ascii" RangeMin="0.0" RangeMax="15.0">
0.0 0.6 1.2 1.8 2.4 3.0 3.6 4.2 4.8 5.4 6.0 6.6 7.2 7.8 8.4 9.0 9.6 10.2 10.8 11.4 12.0 12.6 13.2 13.8 14.4 15.0 
</DataArray>
<DataArray type="Float64" Name="Array Z-Axis" format="ascii" RangeMin="0.0" RangeMax="9.0">
0.0 0.6 1.2 1.8 2.4 3.0 3.6 4.2 4.8 5.4 6.0 6.6 7.2 7.8 8.4 9.0 
</DataArray>
</Coordinates>
<PointData>
<DataArray Name="TEMPERATURE" NumberOfComponents="1" type="Float64" format="ascii">
20.0 20.0 20.0 20.0 20.0 20.0 20.0 20.0 20.0 20.0 20.0 20.0 20.0 20.0 20.0 20.0 20.0 20.0 20.0 20.0 20.0 20.0 20.0 20.0 20.1 20.1 20.1 20.1 20.1 20.1 20.1 20.1 20.1 20.1 20.1 20.1 20.1 20.1 20.1 20.1 20.1 20.1 20.1 20.1 20.1 20.1 20.1 20.1 20.1 20.1 20.1 20.1 20.1 20.1 20.2 20.2 20.2 20.2 20.2 20.2 20.2 20.2 20.2 20.2 20.2 20.1 20.1 20.1 20.1 20.1 20.1 20.1 20.2 20.2 20.2 20.2 20.1 20.1 20.2 20.2 20.2 20.3 20.3 20.3 20.2 20.3 20.3 20.3 20.3 20.3 20.2 20.2 20.2 20.2 20.2 20.2 20.2 20.2 20.3 20.3 20.3 20.2 20.1 20.0 20.3 20.3 20.3 20.4 20.4 20.4 20.4 20.4 20.4 20.4 20.4 20.3 20.3 20.3 20.3 20.3 20.3 20.3 20.4 20.4 20.4 20.4 20.3 20.2 20.1 20.0 20.4 20.4 20.4 20.5 20.5 20.5 20.5 20.5 20.5 20.5 20.5 20.4 20.4 20.4 20.4 20.4 20.5 20.5 20.5 20.5 20.5 20.4 20.3 20.2 20.1 20.0 20.4 20.5 20.5 20.6 20.6 20.6 20.6 20.6 20.7 20.6 20.6 20.5 20.5 20.5 20.6 20.6 20.6 20.6 20.6 20.6 20.5 20.4 20.3 20.1 20.1 20.0 20.5 20.6 20.6 20.7 20.7 20.7 20.7 20.7 20.8 20.8 20.7 20.7 20.7 20.7 20.7 20.8 20.8 20.7 20.7 20.6 20.5 20.4 20.2 20.1 20.1 20.0 20.7 20.7 20.8 20.8 20.9 20.9 20.9 20.9 20.9 20.9 20.9 20.9 20.9 20.9 20.9 20.9 20.9 20.8 20.8 20.6 20.5 20.4 20.2 20.1 20.1 20.0 20.8 20.9 20.9 21.0 21.0 21.0 21.1 21.1 21.1 21.2 21.1 21.1 21.1 21.1 21.1 21.1 21.0 20.9 20.8 20.7 20.5 20.4 20.2 20.2 20.1 20.0 21.0 21.1 21.1 21.2 21.3 21.3 21.3 21.3 21.4 21.4 21.4 21.3 21.3 21.3 21.2 21.2 21.1 21.0 20.8 20.6 20.5 20.3 20.2 20.2 20.1 20.0 21.2 21.3 21.4 21.5 21.6 21.6 21.6 21.7 21.8 21.7 21.6 21.6 21.5 21.5 21.4 21.3 21.2 21.0 20.8 20.6 20.5 20.4 20.3 20.2 20.1 20.0 21.5 21.5 21.6 21.8 21.9 21.9 22.0 22.1 22.1 22.0 21.9 21.8 21.8 21.7 21.5 21.4 21.2 21.0 20.8 20.6 20.5 20.4 20.3 20.2 20.1 20.0 21.7 21.8 22.0 22.2 22.3 22.4 22.5 22.6 22.5 22.4 22.2 22.1 22.0 21.8 21.7 21.5 21.2 21.0 20.8 20.6 20.5 20.4 20.3 20.2 20.1 20.0 21.9 22.1 22.3 22.6 22.8 23.0 23.1 23.1 23.0 22.8 22.5 22.4 22.2 22.0 21.8 21.5 21.3 21.0 20.8 20.6 20.5 20.4 20.3 20.2 20.1 20.0 22.2 22.4 22.7 23.0 23.3 23.7 23.8 23.8 23.6 23.2 22.9 22.7 22.4 22.2 21.9 21.6 21.3 21.0 20.8 20.7 20.5 20.4 20.3 20.2 20.1 20.1 22.5 22.8 23.1 23.5 24.0 24.5 24.7 24.6 24.2 23.7 23.3 23.0 22.7 22.3 21.9 21.6 21.3 21.0 20.8 20.7 20.6 20.4 20.3 20.2 20.1 20.1 22.8 23.2 23.6 24.2 24.8 25.5 25.9 25.8 25.3 24.4 23.8 23.3 22.8 22.4 22.0 21.6 21.3 21.1 20.9 20.8 20.6 20.5 20.4 20.2 20.1 20.1 23.2 23.7 24.2 25.0 25.8 26.9 27.5 27.2 26.3 25.1 24.3 23.7 23.1 22.5 22.1 21.7 21.4 21.2 21.0 20.9 20.7 20.6 20.4 20.3 20.1 20.1 23.8 24.3 25.1 26.5 28.9 31.6 31.1 28.7 27.3 25.9 24.8 24.0 23.3 22.7 22.2 21.9 21.6 21.4 21.2 21.0 20.8 20.6 20.4 20.3 20.1 20.1 24.7 25.6 26.8 30.1 32.9 35.4 33.9 30.9 29.8 27.4 25.5 24.5 23.7 23.0 22.4 22.0 21.7 21.5 21.2 21.0 20.8 20.6 20.4 20.3 20.1 20.1 25.6 26.8 28.4 33.1 36.7 20.0 20.0 35.4 32.6 28.2 26.1 24.9 24.0 23.1 22.5 22.1 21.8 21.5 21.2 20.9 20.8 20.6 20.4 20.3 20.1 20.1 25.5 26.7 28.3 32.6 35.8 20.0 20.0 37.2 33.2 27.9 26.0 24.8 23.9 23.1 22.5 22.1 21.7 21.4 21.2 20.9 20.7 20.5 20.4 20.3 20.1 20.1 24.8 25.9 27.4 31.0 33.1 32.8 34.3 34.2 30.8 27.0 25.4 24.3 23.5 22.9 22.4 22.0 21.7 21.4 21.2 21.0 20.7 20.6 20.4 20.3 20.1 20.1 24.1 24.9 26.0 28.3 30.1 30.7 31.6 30.3 27.4 25.7 24.7 23.8 23.2 22.6 22.2 21.9 21.6 21.3 21.2 21.0 20.8 20.6 20.4 20.3 20.1 20.1 22.7 23.9 24.6 25.7 26.9 27.9 28.0 27.1 25.7 24.7 24.1 23.4 22.9 22.4 22.0 21.7 21.4 21.2 21.0 20.9 20.7 20.6 20.4 20.3 20.1 20.1 20.0 20.0 20.0 20.0 20.0 20.0 20.0 20.0 20.0 20.0 20.0 20.0 20.0 20.0 20.0 20.0 20.0 20.0 20.0 20.0 20.0 20.0 20.0 20.1 20.1 20.1 20.1 20.1 20.1 20.1 20.1 20.1 20.1 20.1 20.1 20.1 20.1 20.1 20.1 20.1 20.1 20.1 20.1 20.1 20.1 20.1 20.1 20.1 20.1 20.1 20.1 20.1 20.1 20.1 20.1 20.2 20.2 20.1 20.1 20.2 20.2 20.2 20.2 20.2 20.1 20.1 20.1 20.1 20.1 20.1 20.1 20.1 20.1 20.2 20.2 20.2 20.1 20.1 20.2 20.2 20.2 20.2 20.2 20.2 20.2 20.3 20.3 20.3 20.3 20.2 20.2 20.2 20.2 20.2 20.2 20.2 20.2 20.2 20.3 20.3 20.3 20.2 20.1 20.0 20.3 20.3 20.3 20.3 20.3 20.3 20.3 20.4 20.4 20.4 20.4 20.3 20.3 20.3 20.3 20.3 20.3 20.3 20.3 20.4 20.4 20.4 20.3 20.2 20.1 20.0 20.3 20.4 20.4 20.4 20.5 20.4 20.4 20.5 20.5 20.5 20.4 20.4 20.4 20.4 20.4 20.4 20.4 20.5 20.5 20.5 20.5 20.4 20.3 20.2 20.1 20.0 20.4 20.4 20.5 20.5 20.6 20.6 20.6 20.6 20.6 20.6 20.6 20.5 20.5 20.5 20.5 20.6 20.6 20.6 20.6 20.6 20.5 20.4 20.3 20.1 20.1 20.0 20.5 20.6 20.6 20.7 20.7 20.7 20.7 20.7 20.8 20.7 20.7 20.7 20.7 20.7 20.7 20.7 20.7 20.7 20.7 20.6 20.5 20.4 20.2 20.1 20.1 20.0 20.7 20.7 20.7 20.8 20.8 20.9 20.9 20.9 20.9 20.9 20.9 20.9 20.9 20.9 20.9 20.9 20.9 20.8 20.7 20.6 20.5 20.3 20.2 20.1 20.1 20.0 20.8 20.9 20.9 21.0 21.0 21.1 21.1 21.1 21.2 21.2 21.1 21.1 21.1 21.1 21.1 21.0 21.0 20.9 20.8 20.6 20.5 20.3 20.2 20.1 20.1 20.0 21.0 21.1 21.1 21.2 21.3 21.3 21.4 21.4 21.4 21.4 21.4 21.3 21.3 21.3 21.2 21.1 21.1 20.9 20.8 20.6 20.5 20.3 20.2 20.2 20.1 20.0 21.2 21.3 21.4 21.5 21.6 21.7 21.7 21.7 21.8 21.7 21.6 21.6 21.5 21.5 21.4 21.3 21.1 21.0 20.8 20.6 20.5 20.3 20.2 20.2 20.1 20.0 21.5 21.6 21.7 21.8 21.9 22.0 22.1 22.2 22.2 22.1 21.9 21.8 21.7 21.6 21.5 21.4 21.2 21.0 20.8 20.6 20.5 20.3 20.3 20.2 20.1 20.0 21.7 21.8 22.0 22.2 22.4 22.5 22.6 22.7 22.6 22.4 22.2 22.1 22.0 21.8 21.7 21.5 21.2 21.0 20.8 20.6 20.5 20.4 20.3 20.2 20.1 20.0 21.9 22.1 22.4 22.6 22.9 23.2 23.3 23.2 23.1 22.8 22.6 22.4 22.2 22.0 21.8 21.5 21.3 21.0 20.8 20.6 20.5 20.4 20.3 20.2 20.1 20.0 22.2 22.5 22.8 23.1 23.5 23.9 24.1 24.0 23.7 23.3 23.0 22.7 22.5 22.2 21.9 21.6 21.3 21.0 20.8 20.6 20.5 20.4 20.3 20.2 20.1 20.0 22.6 22.9 23.3 23.7 24.3 24.9 25.1 24.9 24.4 23.8 23.4 23.1 22.7 22.4 22.0 21.6 21.3 21.0 20.8 20.7 20.5 20.4 20.3 20.2 20.1 20.1 23.0 23.4 23.9 24.5 25.2 26.1 26.5 26.2 25.4 24.6 23.9 23.4 23.0 22.5 22.0 21.7 21.3 21.1 20.9 20.7 20.6 20.5 20.3 20.2 20.1 20.1 23.4 23.9 24.6 25.6 27.1 29.8 30.3 28.2 26.6 25.3 24.5 23.8 23.2 22.6 22.2 21.8 21.5 21.2 21.0 20.9 20.7 20.5 20.4 20.3 20.1 20.1 23.9 24.7 26.0 28.2 32.4 40.4 39.9 31.9 28.1 26.2 25.1 24.2 23.5 22.9 22.4 21.9 21.6 21.4 21.1 20.9 20.8 20.6 20.4 20.3 20.1 20.1 24.9 25.9 27.9 34.5 51.2 105.3 100.6 44.0 31.7 27.9 26.0 24.8 24.0 23.2 22.6 22.1 21.7 21.5 21.2 21.0 20.8 20.6 20.4 20.3 20.1 20.1 25.9 27.2 29.1 38.1 79.6 276.9 275.7 75.8 36.2 29.4 26.7 25.4 24.3 23.4 22.7 22.2 21.8 21.5 21.2 20.9 20.7 20.6 20.4 20.3 20.1 20.1 25.9 27.4 30.4 37.9 106.9 348.9 319.2 86.3 36.4 29.1 26.6 25.3 24.1 23.3 22.7 22.2 21.8 21.4 21.2 20.9 20.7 20.5 20.4 20.2 20.1 20.1 25.1 26.3 29.6 37.5 79.3 162.2 140.6 57.1 32.5 27.6 25.8 24.6 23.7 23.1 22.5 22.1 21.7 21.4 21.2 21.0 20.7 20.6 20.4 20.3 20.1 20.1 24.2 25.0 26.6 31.9 36.7 45.6 46.9 35.1 28.5 26.0 25.0 24.0 23.3 22.7 22.3 21.9 21.6 21.3 21.1 20.9 20.7 20.6 20.4 20.3 20.1 20.1 22.8 24.2 25.0 26.5 27.8 28.8 29.1 27.8 26.0 25.0 24.3 23.6 23.0 22.5 22.1 21.7 21.4 21.2 21.0 20.8 20.7 20.5 20.4 20.3 20.1 20.1 20.0 20.0 20.0 20.0 20.0 20.0 20.0 20.0 20.0 20.0 20.0 20.0 20.0 20.0 20.0 20.0 20.0 20.0 20.0 20.0 20.0 20.0 20.0 20.0 20.1 20.1 20.0 20.1 20.1 20.1 20.1 20.1 20.1 20.1 20.1 20.1 20.1 20.1 20.1 20.1 20.1 20.1 20.0 20.0 20.0 20.0 20.1 20.1 20.1 20.1 20.1 20.1 20.1 20.1 20.1 20.1 20.1 20.1 20.1 20.1 20.2 20.2 20.1 20.1 20.1 20.1 20.1 20.1 20.1 20.1 20.1 20.1 20.1 20.1 20.2 20.2 20.1 20.1 20.2 20.2 20.2 20.2 20.2 20.2 20.2 20.2 20.3 20.2 20.2 20.2 20.2 20.2 20.2 20.2 20.2 20.2 20.2 20.2 20.2 20.2 20.2 20.2 20.1 20.0 20.2 20.3 20.3 20.3 20.3 20.3 20.3 20.3 20.4 20.3 20.3 20.3 20.3 20.2 20.3 20.3 20.3 20.3 20.3 20.3 20.3 20.3 20.3 20.2 20.1 20.0 20.3 20.3 20.4 20.4 20.4 20.4 20.4 20.4 20.5 20.4 20.4 20.4 20.3 20.4 20.4 20.4 20.4 20.4 20.4 20.4 20.4 20.3 20.2 20.1 20.1 20.0 20.4 20.4 20.5 20.5 20.5 20.5 20.5 20.6 20.6 20.6 20.5 20.5 20.5 20.5 20.5 20.5 20.5 20.5 20.5 20.5 20.4 20.3 20.2 20.1 20.1 20.0 20.5 20.5 20.6 20.6 20.7 20.7 20.7 20.7 20.7 20.7 20.7 20.7 20.7 20.7 20.7 20.7 20.7 20.6 20.6 20.5 20.4 20.3 20.2 20.1 20.1 20.0 20.6 20.7 20.7 20.8 20.9 20.9 20.9 20.9 20.9 20.9 20.9 20.9 20.8 20.8 20.8 20.8 20.8 20.7 20.6 20.6 20.4 20.3 20.2 20.1 20.1 20.0 20.8 20.9 20.9 21.0 21.1 21.1 21.1 21.2 21.2 21.2 21.1 21.1 21.0 21.0 21.0 20.9 20.9 20.8 20.7 20.6 20.4 20.3 20.2 20.1 20.1 20.0 21.0 21.1 21.2 21.3 21.4 21.4 21.5 21.5 21.5 21.5 21.4 21.3 21.3 21.2 21.1 21.0 21.0 20.9 20.7 20.6 20.4 20.3 20.2 20.1 20.1 20.0 21.2 21.3 21.4 21.6 21.7 21.8 21.9 21.9 21.9 21.8 21.6 21.5 21.5 21.4 21.3 21.2 21.1 20.9 20.8 20.6 20.4 20.3 20.2 20.1 20.1 20.0 21.4 21.6 21.7 21.9 22.1 22.2 22.4 22.4 22.3 22.1 22.0 21.8 21.7 21.6 21.4 21.3 21.1 21.0 20.8 20.6 20.4 20.3 20.2 20.1 20.1 20.0 21.7 21.9 22.1 22.4 22.6 22.8 22.9 22.9 22.8 22.5 22.3 22.1 22.0 21.8 21.6 21.4 21.2 21.0 20.8 20.6 20.4 20.3 20.2 20.2 20.1 20.0 22.0 22.2 22.5 22.8 23.2 23.5 23.7 23.6 23.3 23.0 22.7 22.5 22.2 22.0 21.8 21.5 21.3 21.0 20.8 20.6 20.5 20.3 20.3 20.2 20.1 20.0 22.3 22.7 23.0 23.4 23.9 24.4 24.7 24.5 23.9 23.5 23.2 22.8 22.6 22.3 21.9 21.6 21.3 21.1 20.8 20.6 20.5 20.4 20.3 20.2 20.1 20.0 22.7 23.2 23.6 24.2 24.8 25.7 26.1 25.6 24.8 24.1 23.7 23.3 22.9 22.5 22.1 21.7 21.4 21.1 20.8 20.6 20.5 20.4 20.3 20.2 20.1 20.0 23.2 23.8 24.4 25.4 26.4 28.6 29.0 27.2 25.9 25.0 24.3 23.7 23.2 22.7 22.2 21.8 21.4 21.1 20.9 20.7 20.6 20.4 20.3 20.2 20.1 20.1 23.7 24.6 25.6 27.7 34.3 49.6 49.1 33.4 27.5 25.9 25.0 24.2 23.5 22.9 22.3 21.9 21.5 21.2 21.0 20.8 20.6 20.5 20.4 20.2 20.1 20.1 24.3 25.6 30.3 45.0 82.2 124.4 122.6 73.9 35.3 27.1 25.8 24.7 23.9 23.2 22.6 22.1 21.7 21.4 21.1 20.9 20.7 20.6 20.4 20.3 20.1 20.1 25.3 27.4 33.9 62.9 148.1 251.3 239.9 124.7 47.4 30.0 27.0 25.6 24.4 23.6 22.9 22.3 21.8 21.5 21.2 21.0 20.8 20.6 20.4 20.3 20.1 20.1 26.5 29.3 34.6 62.3 176.5 356.4 353.9 175.3 68.9 39.2 28.8 26.3 24.9 23.9 23.0 22.4 21.9 21.5 21.2 20.9 20.7 20.5 20.4 20.2 20.1 20.1 26.5 29.8 38.6 68.1 192.1 379.7 358.1 164.3 63.7 39.4 28.7 26.2 24.8 23.8 23.0 22.4 21.9 21.5 21.2 21.0 20.7 20.5 20.4 20.2 20.1 20.1 25.6 28.1 36.1 63.6 135.0 224.8 193.7 82.5 37.7 30.4 26.9 25.5 24.3 23.4 22.8 22.3 21.8 21.4 21.2 20.9 20.7 20.5 20.4 20.2 20.1 20.1 24.6 25.8 28.6 42.9 52.4 57.4 55.0 38.5 30.4 27.4 25.7 24.6 23.8 23.0 22.5 22.0 21.6 21.3 21.1 20.9 20.7 20.5 20.4 20.2 20.1 20.1 23.1 24.7 25.8 30.9 33.5 31.5 30.6 28.9 26.9 25.7 24.8 24.0 23.4 22.7 22.2 21.8 21.5 21.2 21.0 20.8 20.6 20.5 20.4 20.2 20.1 20.1 20.0 20.0 20.0 20.0 20.0 20.0 20.0 20.0 20.0 20.0 20.0 20.0 20.0 20.0 20.0 20.0 20.0 20.0 20.0 20.0 20.0 20.0 20.0 20.0 20.1 20.1 20.0 20.1 20.1 20.1 20.1 20.1 20.1 20.1 20.1 20.1 20.1 20.1 20.1 20.1 20.0 20.0 20.0 20.0 20.0 20.0 20.1 20.1 20.1 20.1 20.1 20.1 20.1 20.1 20.1 20.1 20.1 20.1 20.1 20.1 20.2 20.2 20.1 20.1 20.1 20.1 20.1 20.1 20.1 20.1 20.1 20.1 20.1 20.1 20.2 20.1 20.1 20.0 20.2 20.2 20.2 20.2 20.2 20.2 20.2 20.2 20.3 20.2 20.2 20.2 20.2 20.2 20.2 20.2 20.2 20.2 20.2 20.2 20.2 20.2 20.2 20.2 20.1 20.0 20.2 20.3 20.3 20.3 20.3 20.3 20.3 20.3 20.4 20.3 20.3 20.3 20.3 20.3 20.3 20.3 20.3 20.3 20.3 20.3 20.3 20.3 20.2 20.1 20.1 20.0 20.3 20.3 20.4 20.4 20.4 20.4 20.4 20.5 20.5 20.5 20.4 20.4 20.4 20.4 20.4 20.4 20.4 20.4 20.4 20.4 20.3 20.3 20.2 20.1 20.1 20.0 20.4 20.4 20.5 20.5 20.6 20.6 20.6 20.6 20.6 20.6 20.6 20.5 20.5 20.5 20.5 20.5 20.5 20.5 20.5 20.4 20.4 20.3 20.2 20.1 20.0 20.0 20.5 20.6 20.6 20.7 20.7 20.7 20.7 20.8 20.8 20.8 20.7 20.7 20.7 20.7 20.7 20.6 20.6 20.6 20.5 20.5 20.4 20.3 20.2 20.1 20.0 20.0 20.7 20.7 20.8 20.9 20.9 20.9 21.0 21.0 21.0 21.0 20.9 20.9 20.9 20.8 20.8 20.8 20.7 20.7 20.6 20.5 20.4 20.3 20.2 20.1 20.1 20.0 20.8 20.9 21.0 21.1 21.2 21.2 21.2 21.3 21.3 21.2 21.2 21.1 21.0 21.0 21.0 20.9 20.8 20.7 20.6 20.5 20.4 20.3 20.2 20.1 20.1 20.0 21.0 21.1 21.2 21.4 21.5 21.5 21.6 21.6 21.6 21.5 21.4 21.3 21.2 21.2 21.1 21.0 20.9 20.8 20.7 20.6 20.4 20.3 20.2 20.1 20.1 20.0 21.2 21.4 21.5 21.7 21.8 21.9 22.0 22.1 22.0 21.8 21.7 21.6 21.5 21.4 21.2 21.1 21.0 20.9 20.7 20.6 20.5 20.3 20.2 20.1 20.1 20.0 21.5 21.6 21.8 22.0 22.2 22.4 22.5 22.5 22.4 22.2 22.0 21.8 21.7 21.6 21.4 21.3 21.1 21.0 20.8 20.6 20.5 20.3 20.2 20.1 20.1 20.0 21.7 21.9 22.2 22.5 22.8 23.0 23.1 23.1 22.9 22.6 22.4 22.2 22.0 21.8 21.6 21.4 21.2 21.0 20.8 20.6 20.5 20.3 20.2 20.2 20.1 20.0 22.0 22.3 22.6 23.0 23.3 23.6 23.9 23.9 23.5 23.1 22.8 22.5 22.3 22.0 21.8 21.6 21.3 21.1 20.9 20.7 20.5 20.4 20.3 20.2 20.1 20.0 22.4 22.8 23.2 23.6 24.1 24.5 25.0 24.8 24.1 23.7 23.3 22.9 22.6 22.3 22.0 21.7 21.4 21.1 20.9 20.7 20.5 20.4 20.3 20.2 20.1 20.0 22.9 23.4 24.1 24.7 25.4 27.0 27.5 26.2 25.1 24.4 23.9 23.4 23.0 22.6 22.2 21.8 21.5 21.2 20.9 20.7 20.5 20.4 20.3 20.2 20.1 20.0 23.4 24.2 25.5 26.5 27.5 30.9 32.0 28.6 26.3 25.3 24.6 24.0 23.4 22.8 22.4 21.9 21.5 21.2 21.0 20.8 20.6 20.4 20.3 20.2 20.1 20.0 24.1 25.9 29.5 32.1 40.5 58.5 58.7 39.7 28.8 26.5 25.4 24.5 23.8 23.1 22.5 22.1 21.7 21.3 21.1 20.9 20.7 20.5 20.4 20.2 20.1 20.1 25.7 29.6 46.2 77.9 136.0 196.5 203.2 137.1 57.9 29.4 26.5 25.2 24.2 23.5 22.8 22.3 21.8 21.5 21.2 21.0 20.8 20.6 20.4 20.3 20.1 20.1 29.7 39.1 66.5 134.8 258.5 366.0 374.8 261.2 108.1 38.2 28.2 26.2 24.8 23.9 23.2 22.5 22.0 21.6 21.3 21.0 20.8 20.6 20.4 20.3 20.1 20.1 31.9 43.1 68.9 142.6 291.1 430.7 449.3 319.1 152.1 60.5 30.6 27.2 25.5 24.4 23.4 22.7 22.1 21.6 21.3 21.0 20.8 20.6 20.4 20.2 20.1 20.1 29.6 37.1 65.1 142.8 274.7 386.6 385.6 248.7 120.0 63.9 32.1 27.3 25.6 24.4 23.4 22.7 22.1 21.6 21.3 21.0 20.8 20.6 20.4 20.2 20.1 20.1 27.5 33.9 59.9 118.0 178.3 207.1 182.0 102.7 55.9 45.1 30.3 26.4 25.0 23.9 23.1 22.5 22.0 21.6 21.2 21.0 20.8 20.6 20.4 20.2 20.1 20.1 25.9 29.8 41.2 64.6 71.0 59.7 51.4 41.9 39.6 34.7 27.2 25.3 24.2 23.4 22.7 22.2 21.8 21.4 21.2 20.9 20.7 20.6 20.4 20.2 20.1 20.1 23.5 25.4 27.0 35.6 39.3 35.0 33.7 31.9 30.8 28.3 25.4 24.5 23.7 23.0 22.5 22.0 21.6 21.3 21.0 20.8 20.7 20.5 20.4 20.2 20.1 20.1 20.0 20.0 20.0 20.0 20.0 20.0 20.0 20.0 20.0 20.0 20.0 20.0 20.0 20.0 20.0 20.0 20.0 20.0 20.0 20.0 20.0 20.0 20.0 20.0 20.1 20.1 20.1 20.1 20.1 20.1 20.1 20.1 20.1 20.1 20.1 20.1 20.1 20.1 20.1 20.1 20.1 20.1 20.1 20.1 20.1 20.1 20.1 20.1 20.1 20.1 20.1 20.1 20.1 20.1 20.1 20.2 20.2 20.1 20.1 20.2 20.2 20.2 20.2 20.1 20.1 20.1 20.1 20.1 20.1 20.1 20.1 20.1 20.1 20.1 20.2 20.2 20.1 20.0 20.2 20.2 20.2 20.3 20.3 20.2 20.2 20.3 20.3 20.3 20.3 20.2 20.2 20.2 20.2 20.2 20.2 20.2 20.2 20.2 20.2 20.2 20.2 20.2 20.1 20.0 20.3 20.3 20.3 20.4 20.4 20.3 20.3 20.4 20.4 20.4 20.4 20.3 20.3 20.3 20.3 20.3 20.3 20.3 20.3 20.3 20.3 20.3 20.2 20.2 20.1 20.0 20.3 20.4 20.4 20.5 20.5 20.5 20.5 20.5 20.5 20.5 20.5 20.5 20.4 20.4 20.4 20.4 20.4 20.4 20.4 20.4 20.4 20.3 20.2 20.1 20.1 20.0 20.5 20.5 20.6 20.6 20.6 20.6 20.6 20.7 20.7 20.7 20.7 20.6 20.6 20.6 20.6 20.6 20.6 20.5 20.5 20.5 20.4 20.3 20.2 20.1 20.1 20.0 20.6 20.6 20.7 20.8 20.8 20.8 20.8 20.9 20.9 20.9 20.8 20.8 20.8 20.8 20.7 20.7 20.7 20.6 20.6 20.5 20.4 20.3 20.2 20.1 20.1 20.0 20.8 20.8 20.9 21.0 21.0 21.0 21.1 21.1 21.2 21.1 21.0 21.0 21.0 20.9 20.9 20.8 20.8 20.7 20.6 20.5 20.4 20.3 20.2 20.1 20.1 20.0 20.9 21.0 21.1 21.2 21.3 21.3 21.4 21.4 21.4 21.4 21.3 21.2 21.2 21.1 21.0 20.9 20.9 20.8 20.7 20.6 20.5 20.4 20.2 20.1 20.1 20.0 21.1 21.2 21.3 21.5 21.6 21.6 21.8 21.8 21.7 21.6 21.5 21.4 21.3 21.3 21.2 21.1 21.0 20.9 20.8 20.6 20.5 20.4 20.2 20.1 20.1 20.0 21.3 21.4 21.6 21.8 21.9 22.0 22.1 22.2 22.1 21.9 21.8 21.7 21.6 21.4 21.3 21.2 21.1 21.0 20.8 20.7 20.5 20.4 20.3 20.2 20.1 20.0 21.6 21.7 21.9 22.1 22.3 22.4 22.6 22.6 22.5 22.3 22.1 22.0 21.8 21.7 21.5 21.4 21.2 21.0 20.9 20.7 20.5 20.4 20.3 20.2 20.1 20.0 21.8 22.0 22.2 22.5 22.7 22.9 23.2 23.2 23.0 22.7 22.5 22.3 22.1 21.9 21.7 21.5 21.3 21.1 20.9 20.7 20.6 20.4 20.3 20.2 20.1 20.0 22.1 22.4 22.7 23.0 23.3 23.5 23.9 23.9 23.6 23.2 22.9 22.6 22.4 22.1 21.9 21.7 21.4 21.2 21.0 20.8 20.6 20.4 20.3 20.2 20.1 20.0 22.5 23.2 23.6 23.7 24.0 24.4 24.8 24.8 24.3 23.8 23.4 23.1 22.7 22.4 22.1 21.8 21.5 21.3 21.0 20.8 20.6 20.4 20.3 20.2 20.1 20.0 23.0 25.2 26.1 25.1 25.6 27.3 27.7 26.3 25.3 24.6 24.0 23.6 23.1 22.7 22.3 22.0 21.6 21.3 21.0 20.8 20.6 20.5 20.3 20.2 20.1 20.0 23.7 27.8 29.6 27.5 26.5 29.4 31.8 29.0 26.5 25.5 24.7 24.1 23.5 23.0 22.5 22.1 21.7 21.4 21.1 20.9 20.7 20.5 20.4 20.2 20.1 20.1 25.0 30.5 35.2 34.2 33.6 40.4 46.4 38.6 29.2 26.8 25.6 24.7 24.0 23.3 22.8 22.3 21.9 21.5 21.2 21.0 20.8 20.6 20.4 20.3 20.1 20.1 28.0 38.2 62.2 95.0 104.4 125.7 153.0 124.7 65.0 30.7 26.9 25.5 24.5 23.7 23.1 22.5 22.0 21.7 21.4 21.1 20.9 20.6 20.5 20.3 20.1 20.1 37.4 68.8 124.7 197.4 206.7 257.3 336.7 282.9 141.7 42.2 28.8 26.6 25.1 24.2 23.5 22.8 22.2 21.8 21.4 21.1 20.9 20.7 20.5 20.3 20.1 20.1 40.9 82.0 149.8 231.8 239.3 312.0 421.7 357.2 196.6 67.0 31.1 27.6 25.9 24.7 23.7 22.9 22.3 21.9 21.4 21.1 20.8 20.6 20.4 20.3 20.1 20.1 33.9 57.0 118.3 212.3 224.9 251.7 317.8 253.3 153.5 79.8 35.2 28.0 26.0 24.8 23.7 22.9 22.4 21.8 21.4 21.1 20.8 20.6 20.4 20.3 20.1 20.1 29.4 41.3 86.9 158.2 163.4 141.4 146.9 109.2 84.6 68.6 35.9 27.1 25.4 24.3 23.4 22.7 22.2 21.8 21.4 21.1 20.9 20.6 20.4 20.3 20.1 20.1 26.8 33.5 53.1 79.1 80.3 66.4 60.2 54.2 59.4 50.5 30.3 25.8 24.6 23.7 23.0 22.4 22.0 21.6 21.3 21.0 20.8 20.6 20.4 20.3 20.1 20.1 23.8 26.3 29.7 37.5 39.8 37.5 38.6 38.0 38.2 33.2 26.1 24.8 24.0 23.3 22.8 22.3 21.8 21.5 21.2 20.9 20.7 20.6 20.4 20.3 20.1 20.1 20.0 20.0 20.0 20.0 20.0 20.0 20.0 20.0 20.0 20.0 20.0 20.0 20.0 20.0 20.0 20.0 20.0 20.0 20.0 20.0 20.0 20.0 20.0 20.1 20.1 20.1 20.1 20.1 20.1 20.1 20.1 20.1 20.1 20.1 20.1 20.1 20.1 20.1 20.1 20.1 20.1 20.1 20.1 20.1 20.1 20.1 20.1 20.1 20.1 20.1 20.1 20.1 20.1 20.2 20.2 20.2 20.2 20.2 20.2 20.2 20.2 20.2 20.2 20.2 20.2 20.1 20.1 20.1 20.2 20.2 20.2 20.2 20.2 20.2 20.2 20.2 20.1 20.1 20.2 20.2 20.3 20.3 20.3 20.3 20.3 20.3 20.3 20.3 20.3 20.3 20.2 20.2 20.3 20.3 20.3 20.3 20.3 20.3 20.3 20.3 20.3 20.2 20.1 20.0 20.3 20.3 20.4 20.4 20.4 20.4 20.4 20.4 20.4 20.4 20.4 20.4 20.4 20.4 20.4 20.4 20.4 20.4 20.4 20.4 20.4 20.3 20.3 20.2 20.1 20.0 20.4 20.4 20.5 20.5 20.5 20.5 20.5 20.6 20.6 20.6 20.6 20.5 20.5 20.5 20.5 20.5 20.5 20.5 20.5 20.5 20.4 20.4 20.3 20.2 20.1 20.0 20.5 20.6 20.6 20.7 20.7 20.7 20.7 20.8 20.8 20.8 20.8 20.7 20.7 20.7 20.7 20.7 20.7 20.6 20.6 20.5 20.5 20.4 20.3 20.2 20.1 20.0 20.7 20.7 20.8 20.8 20.9 20.9 20.9 21.0 21.0 21.0 21.0 20.9 20.9 20.9 20.9 20.8 20.8 20.7 20.7 20.6 20.5 20.4 20.3 20.2 20.1 20.0 20.8 20.9 21.0 21.1 21.1 21.1 21.2 21.3 21.3 21.3 21.2 21.1 21.1 21.1 21.0 21.0 20.9 20.8 20.7 20.6 20.5 20.4 20.3 20.2 20.1 20.0 21.0 21.1 21.2 21.3 21.4 21.4 21.5 21.6 21.6 21.5 21.4 21.4 21.3 21.2 21.2 21.1 21.0 20.9 20.8 20.7 20.6 20.4 20.3 20.2 20.1 20.0 21.2 21.3 21.5 21.6 21.7 21.7 21.9 21.9 21.9 21.8 21.7 21.6 21.5 21.4 21.3 21.2 21.1 21.0 20.9 20.7 20.6 20.5 20.3 20.2 20.1 20.0 21.4 21.6 21.7 21.9 22.0 22.1 22.2 22.3 22.2 22.1 21.9 21.8 21.7 21.6 21.5 21.4 21.2 21.1 21.0 20.8 20.6 20.5 20.3 20.2 20.1 20.0 21.6 21.8 22.0 22.2 22.3 22.5 22.7 22.7 22.6 22.4 22.3 22.1 22.0 21.8 21.7 21.5 21.4 21.2 21.0 20.8 20.7 20.5 20.3 20.2 20.1 20.0 21.9 22.1 22.3 22.5 22.7 22.9 23.2 23.3 23.1 22.9 22.6 22.4 22.3 22.1 21.9 21.7 21.5 21.3 21.1 20.9 20.7 20.5 20.3 20.2 20.1 20.1 22.2 22.5 22.7 23.0 23.2 23.5 23.9 23.9 23.7 23.4 23.1 22.8 22.6 22.3 22.1 21.8 21.6 21.4 21.1 20.9 20.7 20.5 20.3 20.2 20.1 20.1 22.6 23.3 23.7 23.6 23.8 24.2 24.6 24.7 24.4 23.9 23.5 23.2 22.9 22.6 22.3 22.0 21.7 21.5 21.2 20.9 20.7 20.5 20.4 20.2 20.1 20.1 23.3 26.3 27.0 25.3 25.2 26.1 26.4 25.8 25.2 24.6 24.1 23.7 23.3 22.9 22.5 22.2 21.8 21.5 21.2 21.0 20.7 20.5 20.4 20.2 20.1 20.1 26.0 33.2 33.1 26.8 25.4 27.8 29.2 27.7 26.4 25.5 24.8 24.2 23.6 23.2 22.7 22.3 21.9 21.6 21.3 21.0 20.8 20.6 20.4 20.3 20.1 20.1 32.0 43.2 41.4 30.3 26.3 31.3 36.3 33.3 29.3 27.2 25.7 24.9 24.1 23.5 23.0 22.5 22.1 21.7 21.4 21.1 20.9 20.7 20.5 20.3 20.2 20.1 41.6 61.5 74.7 71.8 47.6 49.0 68.9 70.6 53.5 31.6 27.0 25.7 24.6 23.9 23.3 22.7 22.3 21.9 21.5 21.2 21.0 20.7 20.5 20.3 20.2 20.1 64.5 119.0 169.4 158.0 100.1 134.8 201.7 195.0 115.5 38.6 28.9 26.8 25.3 24.4 23.7 23.0 22.4 22.0 21.6 21.2 20.9 20.7 20.5 20.3 20.2 20.1 73.2 145.8 218.6 195.7 143.7 228.5 319.8 295.7 171.3 53.4 31.3 27.9 26.1 24.9 24.0 23.2 22.6 22.0 21.6 21.2 20.9 20.7 20.5 20.3 20.1 20.1 51.8 95.5 163.7 171.0 137.6 193.4 249.0 230.9 163.9 79.5 39.4 28.4 26.2 25.0 24.0 23.2 22.6 22.0 21.6 21.2 20.9 20.7 20.5 20.3 20.1 20.1 33.3 49.3 91.0 123.1 108.4 109.8 125.4 125.0 127.5 93.2 44.1 27.7 25.5 24.4 23.7 23.0 22.4 22.0 21.6 21.2 20.9 20.7 20.5 20.3 20.1 20.1 26.7 32.0 45.8 67.0 71.3 65.9 70.4 79.2 92.7 71.4 35.1 26.1 24.8 23.9 23.3 22.7 22.2 21.8 21.5 21.2 20.9 20.7 20.5 20.3 20.2 20.1 24.0 26.9 31.2 36.4 38.1 39.8 44.8 49.7 51.2 39.2 26.8 25.1 24.3 23.6 23.0 22.5 22.1 21.7 21.4 21.1 20.8 20.6 20.5 20.3 20.1 20.1 20.0 20.0 20.0 20.0 20.0 20.0 20.0 20.0 20.0 20.1 20.0 20.0 20.0 20.0 20.0 20.0 20.0 20.0 20.0 20.0 20.0 20.0 20.1 20.1 20.1 20.1 20.1 20.1 20.1 20.1 20.1 20.1 20.1 20.1 20.1 20.1 20.1 20.1 20.1 20.1 20.1 20.1 20.1 20.1 20.1 20.1 20.1 20.1 20.1 20.1 20.1 20.1 20.1 20.2 20.2 20.2 20.2 20.2 20.2 20.2 20.2 20.2 20.2 20.2 20.2 20.2 20.2 20.2 20.2 20.2 20.2 20.2 20.2 20.2 20.2 20.2 20.1 20.1 20.2 20.3 20.3 20.3 20.3 20.3 20.3 20.3 20.3 20.3 20.3 20.3 20.3 20.3 20.3 20.3 20.3 20.3 20.3 20.3 20.3 20.3 20.3 20.3 20.1 20.1 20.3 20.3 20.4 20.4 20.4 20.4 20.4 20.4 20.5 20.5 20.5 20.4 20.4 20.4 20.5 20.5 20.5 20.5 20.5 20.5 20.4 20.4 20.3 20.2 20.1 20.0 20.4 20.5 20.5 20.5 20.5 20.5 20.5 20.6 20.7 20.7 20.7 20.6 20.6 20.6 20.6 20.6 20.6 20.6 20.6 20.6 20.5 20.5 20.4 20.2 20.1 20.0 20.6 20.6 20.7 20.7 20.7 20.7 20.7 20.8 20.9 20.9 20.9 20.8 20.8 20.8 20.8 20.8 20.8 20.7 20.7 20.6 20.6 20.5 20.4 20.2 20.1 20.0 20.7 20.8 20.8 20.9 20.9 20.9 21.0 21.1 21.1 21.1 21.1 21.1 21.0 21.0 21.0 21.0 20.9 20.8 20.8 20.7 20.6 20.5 20.4 20.2 20.1 20.0 20.9 21.0 21.1 21.1 21.2 21.2 21.3 21.4 21.4 21.4 21.3 21.3 21.2 21.2 21.1 21.1 21.0 20.9 20.9 20.8 20.7 20.5 20.4 20.2 20.1 20.0 21.1 21.2 21.3 21.4 21.4 21.5 21.6 21.7 21.7 21.7 21.6 21.5 21.4 21.4 21.3 21.2 21.1 21.0 20.9 20.8 20.7 20.5 20.4 20.2 20.1 20.1 21.3 21.4 21.5 21.7 21.7 21.8 22.0 22.1 22.0 21.9 21.8 21.7 21.6 21.5 21.5 21.4 21.2 21.1 21.0 20.9 20.7 20.6 20.4 20.2 20.1 20.1 21.5 21.6 21.8 21.9 22.1 22.2 22.3 22.4 22.4 22.2 22.0 21.9 21.8 21.7 21.6 21.5 21.4 21.3 21.1 21.0 20.8 20.6 20.4 20.2 20.1 20.1 21.7 21.8 22.0 22.2 22.4 22.6 22.8 22.8 22.7 22.5 22.4 22.2 22.1 22.0 21.8 21.7 21.5 21.4 21.2 21.0 20.8 20.6 20.4 20.2 20.1 20.1 21.9 22.1 22.4 22.5 22.7 23.0 23.3 23.3 23.2 22.9 22.7 22.5 22.4 22.2 22.0 21.8 21.7 21.5 21.3 21.0 20.8 20.6 20.4 20.2 20.1 20.1 22.2 22.4 22.7 22.9 23.1 23.4 23.8 23.9 23.7 23.4 23.1 22.9 22.7 22.5 22.2 22.0 21.8 21.6 21.3 21.1 20.8 20.6 20.4 20.2 20.1 20.1 22.5 23.0 23.3 23.5 23.7 24.0 24.4 24.6 24.4 23.9 23.6 23.3 23.0 22.7 22.4 22.2 21.9 21.6 21.4 21.1 20.8 20.6 20.4 20.3 20.1 20.1 23.5 25.1 25.5 24.9 24.8 25.2 25.4 25.5 25.2 24.6 24.2 23.8 23.4 23.0 22.7 22.3 22.0 21.7 21.4 21.1 20.8 20.6 20.4 20.3 20.1 20.1 29.9 36.3 31.4 25.3 26.1 27.4 27.2 26.7 26.1 25.5 24.9 24.3 23.8 23.3 22.9 22.5 22.2 21.8 21.5 21.2 20.9 20.6 20.5 20.3 20.2 20.1 49.7 58.5 41.6 25.9 27.7 30.5 30.2 30.0 29.7 27.8 25.7 25.0 24.3 23.7 23.2 22.7 22.3 21.9 21.6 21.3 21.0 20.7 20.5 20.3 20.2 20.1 79.6 93.1 69.1 38.3 32.5 36.5 37.2 47.5 47.3 33.0 26.9 25.8 24.8 24.0 23.5 23.0 22.5 22.1 21.7 21.3 21.0 20.8 20.6 20.4 20.2 20.1 124.2 167.8 141.8 71.9 65.8 90.3 94.0 109.5 81.3 36.4 28.6 27.0 25.6 24.5 23.9 23.3 22.7 22.2 21.8 21.4 21.0 20.7 20.5 20.3 20.2 20.1 138.1 200.6 180.3 111.1 150.1 206.4 202.7 199.8 126.8 45.0 31.4 28.1 26.3 25.0 24.2 23.5 22.8 22.2 21.8 21.3 21.0 20.7 20.5 20.3 20.2 20.1 87.2 130.5 131.6 118.1 182.7 233.9 220.7 218.5 165.7 79.4 40.8 28.5 26.2 25.0 24.1 23.4 22.8 22.2 21.7 21.3 21.0 20.7 20.5 20.3 20.1 20.1 40.0 56.6 67.4 82.4 117.9 137.6 135.7 161.1 166.9 103.9 44.5 27.7 25.6 24.5 23.8 23.2 22.7 22.2 21.7 21.3 21.0 20.7 20.5 20.3 20.2 20.1 28.0 30.7 35.9 47.0 58.4 64.8 78.0 111.5 123.8 77.0 34.2 26.2 24.9 24.1 23.4 22.9 22.5 22.0 21.6 21.3 21.0 20.7 20.5 20.3 20.2 20.1 25.2 28.0 30.8 33.4 35.7 40.1 50.0 66.2 63.1 39.2 26.7 25.2 24.4 23.8 23.2 22.7 22.3 21.9 21.5 21.2 20.9 20.7 20.5 20.3 20.2 20.1 20.0 20.0 20.0 20.0 20.0 20.0 20.0 20.0 20.0 20.1 20.1 20.0 20.0 20.0 20.0 20.0 20.0 20.0 20.0 20.1 20.1 20.1 20.1 20.1 20.1 20.1 20.1 20.1 20.1 20.1 20.1 20.1 20.1 20.1 20.1 20.1 20.1 20.1 20.1 20.1 20.1 20.1 20.1 20.1 20.1 20.1 20.1 20.1 20.2 20.2 20.2 20.1 20.1 20.2 20.2 20.2 20.2 20.2 20.2 20.2 20.2 20.2 20.2 20.2 20.2 20.2 20.2 20.2 20.2 20.2 20.2 20.2 20.3 20.3 20.3 20.3 20.2 20.1 20.2 20.3 20.3 20.3 20.3 20.3 20.3 20.3 20.3 20.4 20.3 20.3 20.3 20.3 20.3 20.4 20.4 20.4 20.4 20.4 20.4 20.4 20.4 20.3 20.2 20.1 20.3 20.3 20.4 20.4 20.4 20.4 20.4 20.4 20.5 20.5 20.5 20.5 20.5 20.5 20.5 20.6 20.6 20.6 20.6 20.6 20.5 20.5 20.4 20.3 20.1 20.1 20.4 20.5 20.5 20.5 20.5 20.5 20.6 20.6 20.7 20.7 20.7 20.7 20.7 20.7 20.7 20.7 20.7 20.7 20.7 20.7 20.6 20.5 20.4 20.3 20.1 20.1 20.6 20.6 20.7 20.7 20.7 20.7 20.8 20.9 21.0 21.0 21.0 20.9 20.9 20.9 20.9 20.9 20.9 20.8 20.8 20.7 20.7 20.6 20.4 20.3 20.1 20.1 20.8 20.8 20.9 20.9 21.0 21.0 21.0 21.2 21.2 21.2 21.2 21.1 21.1 21.1 21.1 21.0 21.0 20.9 20.9 20.8 20.7 20.6 20.4 20.3 20.1 20.1 20.9 21.0 21.1 21.2 21.2 21.3 21.4 21.5 21.5 21.5 21.4 21.3 21.3 21.3 21.2 21.2 21.1 21.0 20.9 20.9 20.8 20.6 20.4 20.3 20.1 20.1 21.1 21.2 21.3 21.4 21.5 21.5 21.7 21.8 21.8 21.7 21.6 21.5 21.5 21.4 21.3 21.3 21.2 21.1 21.0 20.9 20.8 20.6 20.4 20.3 20.1 20.1 21.3 21.4 21.6 21.7 21.8 21.9 22.0 22.1 22.1 22.0 21.8 21.7 21.6 21.6 21.5 21.4 21.3 21.2 21.1 21.0 20.8 20.7 20.4 20.3 20.1 20.1 21.5 21.6 21.8 21.9 22.1 22.2 22.4 22.5 22.4 22.2 22.1 21.9 21.9 21.8 21.7 21.5 21.4 21.3 21.2 21.1 20.9 20.7 20.4 20.3 20.1 20.1 21.6 21.9 22.0 22.2 22.3 22.6 22.8 22.9 22.7 22.5 22.4 22.2 22.1 22.0 21.8 21.7 21.6 21.5 21.3 21.1 20.9 20.7 20.4 20.3 20.1 20.1 21.8 22.1 22.3 22.5 22.7 23.0 23.3 23.4 23.2 22.9 22.7 22.5 22.4 22.2 22.0 21.9 21.7 21.6 21.4 21.2 20.9 20.7 20.4 20.3 20.1 20.1 22.1 22.4 22.7 22.9 23.1 23.4 23.7 23.8 23.7 23.4 23.2 22.9 22.7 22.5 22.3 22.1 21.9 21.7 21.4 21.2 20.9 20.7 20.4 20.3 20.1 20.1 22.6 22.9 23.1 23.4 23.7 24.0 24.3 24.5 24.4 24.0 23.6 23.3 23.0 22.8 22.5 22.2 22.0 21.8 21.5 21.2 20.9 20.7 20.4 20.3 20.1 20.1 23.8 24.4 24.5 24.6 24.7 24.9 25.3 25.4 25.1 24.6 24.2 23.8 23.4 23.0 22.7 22.4 22.1 21.8 21.5 21.2 20.9 20.7 20.4 20.3 20.1 20.1 31.5 34.4 27.9 25.7 26.5 26.4 26.5 26.4 25.9 25.3 24.8 24.3 23.8 23.4 23.0 22.6 22.3 21.9 21.6 21.3 21.0 20.7 20.5 20.3 20.2 20.1 59.0 56.9 33.6 26.6 28.6 27.9 28.2 29.1 29.1 27.3 25.5 24.9 24.3 23.8 23.3 22.9 22.5 22.1 21.7 21.4 21.0 20.8 20.5 20.3 20.2 20.1 99.7 90.8 45.8 30.0 33.6 32.3 33.5 41.3 41.4 31.6 26.6 25.7 24.9 24.2 23.6 23.1 22.7 22.2 21.8 21.4 21.1 20.8 20.6 20.4 20.2 20.1 154.3 153.6 80.7 41.9 51.0 49.0 51.6 64.6 56.7 34.4 28.3 26.9 25.7 24.6 24.0 23.4 22.9 22.4 21.9 21.5 21.1 20.8 20.5 20.4 20.2 20.1 169.0 183.3 118.1 96.1 129.9 128.1 123.7 122.4 92.9 48.6 33.0 28.2 26.4 25.1 24.3 23.6 23.0 22.4 21.9 21.4 21.0 20.7 20.5 20.3 20.2 20.1 102.0 128.0 120.6 154.8 206.7 202.7 192.1 188.1 154.0 85.3 42.1 28.7 26.4 25.1 24.2 23.6 23.0 22.5 21.9 21.4 21.0 20.7 20.5 20.3 20.2 20.1 43.6 60.7 74.8 106.8 143.1 147.0 147.6 174.9 170.2 98.2 41.4 27.6 25.8 24.7 23.9 23.3 22.9 22.4 21.9 21.4 21.1 20.8 20.5 20.3 20.2 20.1 32.3 33.6 35.0 40.2 53.2 63.4 80.9 125.3 123.3 64.3 31.3 26.1 25.1 24.2 23.6 23.1 22.6 22.2 21.8 21.4 21.1 20.8 20.5 20.4 20.2 20.1 28.5 30.8 31.6 33.8 34.9 37.2 50.8 74.1 63.0 33.5 26.5 25.2 24.5 23.8 23.3 22.8 22.4 22.0 21.7 21.3 21.0 20.7 20.5 20.3 20.2 20.1 20.0 20.0 20.0 20.0 20.0 20.0 20.0 20.0 20.1 20.1 20.1 20.1 20.0 20.0 20.0 20.0 20.0 20.1 20.1 20.1 20.1 20.1 20.1 20.1 20.1 20.1 20.1 20.1 20.1 20.1 20.1 20.1 20.1 20.1 20.1 20.1 20.1 20.1 20.1 20.1 20.1 20.1 20.1 20.1 20.1 20.1 20.1 20.2 20.2 20.2 20.2 20.1 20.2 20.2 20.2 20.2 20.2 20.2 20.2 20.2 20.2 20.2 20.2 20.2 20.2 20.2 20.2 20.2 20.2 20.3 20.3 20.3 20.3 20.3 20.3 20.3 20.2 20.1 20.2 20.2 20.3 20.3 20.3 20.3 20.3 20.3 20.3 20.4 20.4 20.4 20.4 20.4 20.4 20.4 20.4 20.5 20.5 20.5 20.5 20.5 20.4 20.4 20.2 20.1 20.3 20.3 20.4 20.4 20.4 20.4 20.4 20.5 20.5 20.6 20.6 20.6 20.5 20.6 20.6 20.6 20.6 20.6 20.6 20.6 20.6 20.6 20.5 20.3 20.2 20.1 20.4 20.5 20.5 20.5 20.5 20.6 20.6 20.7 20.8 20.8 20.8 20.8 20.8 20.8 20.8 20.8 20.8 20.8 20.7 20.7 20.7 20.6 20.5 20.3 20.1 20.1 20.6 20.6 20.7 20.7 20.7 20.8 20.8 20.9 21.0 21.1 21.0 21.0 20.9 20.9 21.0 20.9 20.9 20.9 20.8 20.8 20.7 20.6 20.5 20.3 20.1 20.1 20.8 20.8 20.9 20.9 21.0 21.0 21.1 21.2 21.3 21.3 21.2 21.2 21.1 21.1 21.1 21.0 21.0 20.9 20.9 20.8 20.8 20.7 20.5 20.3 20.1 20.1 20.9 21.0 21.1 21.2 21.2 21.3 21.4 21.5 21.6 21.5 21.4 21.3 21.3 21.2 21.2 21.1 21.1 21.0 21.0 20.9 20.8 20.7 20.5 20.3 20.1 20.1 21.1 21.2 21.3 21.4 21.5 21.6 21.7 21.8 21.8 21.7 21.6 21.5 21.4 21.4 21.3 21.2 21.2 21.1 21.0 21.0 20.9 20.7 20.5 20.3 20.1 20.1 21.3 21.4 21.6 21.7 21.8 21.9 22.1 22.1 22.1 21.9 21.8 21.7 21.6 21.5 21.5 21.4 21.3 21.2 21.1 21.0 20.9 20.7 20.5 20.3 20.1 20.1 21.4 21.6 21.8 21.9 22.1 22.3 22.4 22.5 22.4 22.2 22.0 21.9 21.8 21.7 21.6 21.5 21.4 21.3 21.2 21.1 20.9 20.7 20.5 20.3 20.1 20.1 21.6 21.8 22.0 22.2 22.3 22.6 22.8 22.9 22.7 22.5 22.3 22.2 22.0 21.9 21.8 21.7 21.5 21.4 21.3 21.2 21.0 20.7 20.5 20.3 20.1 20.1 21.9 22.1 22.3 22.4 22.6 22.9 23.2 23.3 23.1 22.8 22.6 22.5 22.3 22.1 22.0 21.8 21.7 21.5 21.4 21.2 21.0 20.7 20.5 20.3 20.1 20.1 22.1 2