<?xml version="1.0"?>
<VTKFile type="PolyData" version="1.0" byte_order="LittleEndian" header_type="UInt64">
<PolyData>
<Piece NumberOfPoints="180" NumberOfVerts="0" NumberOfLines="0" NumberOfPolys="0">
    <Points>
        <DataArray type="Float32" NumberOfComponents="3" format="ascii">
        14.5805 5.3446 6.2528 14.5622 9.0906 3.1514 14.7538 9.7222 2.5284 14.6614 9.7004 2.6341 14.5077 9.4268 2.9823 14.6968 7.8766 3.3140 14.1061 8.2041 4.5472 13.9490 10.1274 1.2486 14.7324 3.8204 4.1782 14.2541 7.5402 3.5435 14.6966 7.3322 2.8267 14.3445 7.1672 5.2161 13.4670 5.4899 6.9061 14.5970 9.7384 3.9376 13.5607 5.3985 6.8164 14.0932 7.2867 5.3762 14.7960 9.1230 3.8462 14.7590 8.8091 2.9700 14.8397 10.3826 3.6332 14.6697 10.2535 4.1923 14.7035 9.2972 3.6729 14.6269 9.7437 3.2696 14.6313 6.5789 5.1428 14.6687 9.5690 3.2388 14.8648 10.3947 3.6719 14.4007 6.7237 4.6510 14.8432 10.3390 3.1911 11.8113 11.6030 8.2327 14.6723 6.8605 4.5415 12.3592 3.7103 6.8027 14.8371 11.3071 2.9120 14.3219 8.3468 3.8904 11.9100 2.7232 7.5869 13.1867 4.8029 5.8684 14.6149 8.3776 3.2407 14.9037 8.5781 2.6892 14.5101 8.4223 3.9245 14.7780 8.8059 3.6585 14.6559 8.5695 3.8676 14.8709 9.5250 2.7741 14.5248 6.0077 5.4514 14.8239 9.0758 4.0685 14.7265 5.7248 6.1629 12.1948 8.4364 6.0831 13.1720 9.9373 4.6093 12.8752 7.9471 5.6248 13.5804 9.4782 4.3947 13.9036 9.4397 3.4145 13.0975 10.0380 5.3714 14.6277 4.7414 6.7441 12.8076 6.9670 5.7935 13.7470 10.7781 4.7744 12.9076 6.6817 5.7745 13.8647 10.3558 4.3616 14.2702 9.2947 4.1087 14.9284 7.1154 4.5322 13.9304 10.6099 3.8008 11.3241 7.7292 6.7260 11.1348 9.3305 6.7353 11.4947 9.1010 6.5578 14.0493 11.0127 3.9491 13.8503 10.4329 2.9910 13.4776 9.8344 3.7936 13.6179 8.3548 4.4739 12.6275 9.9912 5.6924 13.8416 7.7777 4.6408 14.3054 11.0492 2.4470 13.7759 8.0992 4.4979 13.5432 9.8059 3.7309 14.1752 9.9860 1.7405 13.9283 6.6370 5.1053 13.7813 9.2617 3.6262 14.7313 8.9356 2.5898 14.3793 8.6235 3.5500 14.2450 10.6553 2.4313 14.1052 10.0640 2.1288 12.3904 6.8483 6.0829 13.9998 6.5734 5.1997 12.9610 5.2246 6.9663 13.2217 4.0558 6.7583 13.8603 9.7343 3.8942 14.1339 9.7777 2.9844 14.0634 9.4642 3.1197 11.6027 6.8852 6.6349 14.0818 9.8228 3.1778 12.8652 7.0848 5.6514 14.1038 9.1842 3.5668 13.3269 8.2528 4.9230 13.9555 8.0365 4.5198 12.9875 3.6085 6.9071 13.1286 3.7104 6.7915 13.6833 5.9106 5.8850 14.6654 9.6081 1.8340 13.7879 5.3221 6.2880 14.2559 9.2102 3.9228 13.6148 8.0300 4.8063 14.2834 8.0456 4.1048 14.8374 8.5981 3.0933 14.6091 7.6242 3.8605 14.1707 7.8603 4.4633 14.6965 9.6630 2.9845 13.2137 4.4665 6.9065 14.5760 5.6543 4.9725 13.6413 7.8121 5.2519 12.0164 3.9290 7.2542 14.4414 7.1587 4.8727 14.5203 5.5154 4.9869 13.2237 6.6734 5.7871 14.8110 5.2226 4.6434 14.8562 6.8664 3.3032 13.9972 8.1812 4.9238 13.7858 4.3051 6.2720 14.0933 4.8943 6.0156 14.1100 7.2706 5.4499 13.8011 5.5845 6.7099 14.8272 7.0479 3.7942 13.9773 8.2243 4.9128 14.2650 5.3823 5.0895 14.4036 4.6482 5.2745 14.6061 7.7691 4.0917 13.4898 6.4028 5.6957 14.7585 9.3098 3.3825 14.8476 8.1541 3.5525 14.2759 4.6032 5.6906 13.8521 4.2486 5.8477 14.7236 11.6402 2.3881 14.5994 11.4976 3.3510 14.8999 7.3754 4.6301 13.5393 6.4164 6.4423 14.5351 6.7009 5.6649 14.6452 8.5837 4.8544 14.1543 5.8301 6.6355 14.6344 6.7130 5.5896 13.8638 6.2976 6.4322 14.3376 5.5417 6.6309 14.5240 12.4532 8.3940 14.5645 11.9470 8.3940 14.8502 8.4211 4.5473 14.4952 6.9579 5.5137 14.4151 7.5961 5.1307 14.7933 8.4398 5.6247 14.1964 2.4239 7.1687 14.3537 7.6601 6.4127 14.9699 2.7965 6.7108 14.4381 5.9676 6.4624 14.5997 1.9173 7.2137 14.5874 7.0780 6.3274 14.2066 7.2172 6.4444 13.7027 1.8661 7.6879 14.5256 7.8872 6.0525 14.3784 2.7974 6.9762 14.6780 8.4317 5.3304 14.9735 3.5051 6.4692 14.9213 9.7169 3.8980 14.8132 6.0242 6.3314 14.6484 11.9560 8.3940 14.3909 7.9777 6.2487 14.7156 12.9875 8.3940 14.7222 12.5407 8.3940 14.1151 8.0524 5.7705 14.2775 8.1865 5.6231 14.1943 7.4513 6.5838 14.8575 8.5398 5.4050 14.6189 7.3672 6.3393 14.5991 5.4974 6.6930 14.7820 12.5432 8.3940 13.4380 2.5799 7.2912 14.3158 6.9351 6.4611 14.7236 8.3761 5.5662 14.9821 8.7984 4.4896 14.3248 6.1852 6.2253 14.1125 11.4371 1.8510 14.9246 8.9817 4.7349 14.5956 11.2491 3.6488 12.5732 10.0550 8.1312 14.7932 6.5936 5.9013 14.7105 12.3717 8.3940 14.6724 7.5746 6.1939 14.9627 9.4100 4.4384 14.9684 2.5814 6.6067 
        </DataArray>
    </Points>
    <PointData>
        <DataArray type="Float32" Name="tag" format="ascii">
            19307.0000 15139.0000 18383.0000 20847.0000 28435.0000 33571.0000 29691.0000 77379.0000 39535.0000 98559.0000 97911.0000 79995.0000 80015.0000 87707.0000 84131.0000 83247.0000 82583.0000 95439.0000 89335.0000 84467.0000 92131.0000 91423.0000 92939.0000 92919.0000 87995.0000 86623.0000 81939.0000 89763.0000 93455.0000 88435.0000 76475.0000 89155.0000 90599.0000 92787.0000 93607.0000 94843.0000 91279.0000 77883.0000 84863.0000 84967.0000 84695.0000 141215.0000 136783.0000 160427.0000 160103.0000 171079.0000 167843.0000 167635.0000 159383.0000 147207.0000 174479.0000 158219.0000 165831.0000 159167.0000 171279.0000 142447.0000 158299.0000 163851.0000 151143.0000 158659.0000 157131.0000 159087.0000 157879.0000 155991.0000 160523.0000 153147.0000 158987.0000 152283.0000 156507.0000 160043.0000 151567.0000 155583.0000 155039.0000 157419.0000 160747.0000 164523.0000 166163.0000 154447.0000 162731.0000 154219.0000 164431.0000 162587.0000 168415.0000 171367.0000 162051.0000 171795.0000 164587.0000 171507.0000 165731.0000 158847.0000 157291.0000 162183.0000 166075.0000 160667.0000 169935.0000 167647.0000 169999.0000 166183.0000 157543.0000 169595.0000 171031.0000 170991.0000 153783.0000 177835.0000 176091.0000 176035.0000 152703.0000 177575.0000 149647.0000 152259.0000 174579.0000 156719.0000 156559.0000 183111.0000 184647.0000 155291.0000 176099.0000 155419.0000 154407.0000 171107.0000 176551.0000 173075.0000 167619.0000 151171.0000 157191.0000 76863.0000 76783.0000 183119.0000 227819.0000 213079.0000 213715.0000 208503.0000 211987.0000 216539.0000 208675.0000 63887.0000 58819.0000 209947.0000 211439.0000 217631.0000 226403.0000 224175.0000 224987.0000 221647.0000 227735.0000 221339.0000 217803.0000 234119.0000 193423.0000 214835.0000 221867.0000 208559.0000 217011.0000 211927.0000 215083.0000 73151.0000 231267.0000 76515.0000 92403.0000 228111.0000 220823.0000 235475.0000 216407.0000 255659.0000 223563.0000 87739.0000 213879.0000 234107.0000 247395.0000 205547.0000 222623.0000 145027.0000 208667.0000 91603.0000 143071.0000 206099.0000 66419.0000 249507.0000 247459.0000 225939.0000 
         </DataArray>
    </PointData>
</Piece>
</PolyData>
</VTKFile>