<?xml version="1.0"?>
<VTKFile type="PolyData" version="1.0" byte_order="LittleEndian" header_type="UInt64">
<PolyData>
<Piece NumberOfPoints="431" NumberOfVerts="0" NumberOfLines="0" NumberOfPolys="0">
    <Points>
        <DataArray type="Float32" NumberOfComponents="3" format="ascii">
        14.7062 9.3496 4.0720 14.6286 8.1181 4.3170 14.8646 11.2469 2.3085 14.4331 8.0091 4.6896 14.5264 10.7332 4.8620 14.0530 7.8122 7.2434 14.6877 4.1894 7.0479 7.0813 8.5804 6.6889 13.6285 5.5275 4.4593 14.8752 7.0854 4.4124 14.8383 5.9465 5.4123 12.8062 8.7344 4.8071 14.2091 11.3239 1.0608 13.5870 8.8731 3.0181 13.7061 11.1174 3.0505 14.7097 4.1890 5.8823 13.4679 7.8601 3.2246 13.6206 11.8953 3.8903 13.5159 7.5758 3.3543 11.8600 7.5421 6.3681 11.1232 9.0986 6.3290 11.9932 9.3067 5.9626 13.1943 10.7799 4.0053 14.6226 8.2703 1.3563 12.9633 7.2989 4.5090 14.6739 8.1565 1.5748 13.0862 5.1104 5.6708 13.6129 4.5124 5.2250 12.2544 6.9783 5.9933 13.5691 8.0874 2.9551 14.1947 9.6912 1.3022 14.2382 7.0379 2.8496 14.2555 6.2036 3.1548 13.6133 4.8325 4.5149 14.3461 9.1702 2.0458 13.7831 7.6483 3.1474 14.1640 5.2760 3.2436 14.6009 6.1811 1.9181 14.6751 8.5112 2.5662 13.8552 5.6061 5.2495 14.1031 7.6122 2.7896 14.7519 5.8894 2.4919 14.2046 5.2107 3.6384 14.0838 12.1242 4.1853 13.9801 6.7276 4.8501 13.9870 5.6815 5.7713 14.2167 6.5874 4.8188 14.3792 5.7287 5.1668 13.5251 12.4686 8.3940 13.5881 11.7352 8.3940 14.1389 2.5862 5.1017 14.6310 8.3048 3.6326 14.6060 6.3436 4.4557 14.8444 2.1152 5.7084 14.8314 7.7051 3.8714 14.4878 7.5594 4.1561 14.3801 3.1466 4.6982 13.6871 11.6841 8.3940 14.7514 8.9469 2.7465 13.7286 13.1422 8.3940 13.7236 12.5120 8.3940 14.4545 7.7609 4.2175 14.5780 5.4114 5.2633 13.7861 12.4642 8.3940 13.4322 1.0881 6.8809 14.4922 7.1818 4.5263 14.6893 6.9470 3.7014 11.7583 8.6585 2.8532 13.7114 12.3705 8.3940 14.7870 4.7868 3.2922 13.9058 0.7009 7.1345 13.9636 12.5880 8.3940 14.1006 11.4396 8.3940 13.9410 12.0129 8.3940 11.3405 9.6947 7.9409 13.8835 13.0058 8.3940 13.8834 12.2452 8.3940 13.9704 13.3584 8.3940 13.9740 11.6250 8.3940 14.0724 11.6186 8.3940 14.0200 13.2312 8.3940 14.0593 12.7537 8.3940 14.1337 12.7634 8.3940 14.1945 12.9193 8.3940 14.1331 12.3391 8.3940 14.2356 10.9091 8.3940 14.0220 12.5390 8.3940 14.2388 11.0942 8.3940 14.1553 13.9084 8.3940 14.1057 12.6864 8.3940 14.1554 11.6933 8.3940 14.0651 12.8199 8.3940 14.1985 13.5663 8.3940 14.0804 13.5060 8.3940 14.1648 13.2416 8.3940 14.2379 11.0894 8.3940 14.1389 12.1548 8.3940 14.0300 13.2445 8.3940 14.1849 12.1955 8.3940 14.2037 13.8510 8.3940 14.2108 13.6070 8.3940 14.1807 13.1991 8.3940 14.0990 12.6732 8.3940 14.9437 7.0715 5.8660 14.2267 13.1700 8.3940 14.5210 6.5041 6.0534 14.1151 13.1178 8.3940 14.1620 13.6434 8.3940 14.2818 6.4934 6.3713 14.1232 13.2400 8.3940 14.1491 11.9403 8.3940 14.1625 12.7498 8.3940 14.1624 6.0267 6.9309 14.8859 8.3643 4.3725 14.0358 8.1836 6.2637 14.0635 6.4943 7.0903 13.6645 7.8296 7.1469 14.5153 6.5423 6.2786 14.9178 7.0931 5.0043 14.5883 6.3545 5.7606 14.7325 6.6494 5.3524 14.9602 10.3291 4.5541 14.2769 13.0294 8.3940 14.4042 11.8979 8.3940 14.2324 12.0465 8.3940 14.8602 6.1876 5.1112 14.3529 6.9366 6.0743 14.2846 13.0320 8.3940 14.4243 11.6822 8.3940 14.2310 13.0236 8.3940 14.1950 5.9896 6.4248 14.4288 10.3478 8.3940 14.4008 6.2976 6.1804 14.3483 7.4132 5.9438 14.3837 14.4459 8.3940 14.4110 14.6577 8.3940 14.3279 13.9925 8.3940 14.2608 11.7482 8.3940 14.2813 11.6395 8.3940 14.2352 12.3002 8.3940 14.8999 8.2582 4.4639 14.3356 13.6736 8.3940 14.3209 13.6530 8.3940 14.2969 13.3897 8.3940 14.0745 7.3147 6.8661 14.4258 4.9210 7.2208 14.3155 13.5756 8.3940 14.4071 11.0310 8.3940 14.3306 4.9100 7.2052 14.5901 7.2660 5.9247 14.2545 8.0935 6.0819 14.9218 7.0647 5.0790 14.3501 11.4716 8.3940 13.4099 7.4199 7.5361 14.3317 12.0117 8.3940 14.8584 6.9329 4.7128 14.4698 8.2613 5.9184 14.7534 9.8437 3.9713 14.4660 7.7137 5.8908 13.7607 7.1216 7.3151 14.8616 9.2032 4.7885 14.3280 12.9031 8.3940 14.5011 10.8427 8.3940 14.3696 13.2618 8.3940 14.3525 12.7078 8.3940 14.3997 11.6022 8.3940 14.3778 11.7481 8.3940 14.3505 12.2414 8.3940 14.5324 10.6666 8.3940 14.5273 14.2957 8.3940 13.3064 7.8206 7.3725 14.4000 13.1923 8.3940 14.5827 14.6095 8.3940 14.5464 14.3320 8.3940 14.4765 13.8448 8.3940 14.3982 12.4590 8.3940 13.5806 6.0643 7.4012 14.4953 7.0822 6.0737 13.7051 11.6653 4.0997 13.6087 5.5028 7.4225 14.8194 11.5272 4.8119 14.7356 9.4754 4.5301 14.1560 7.8975 6.1790 14.7784 6.7460 5.3810 14.5026 13.5822 8.3940 12.8937 10.4179 4.4419 14.4731 12.8653 8.3940 11.3889 5.5303 7.4751 14.4185 12.8595 8.3940 13.9889 8.7909 5.7141 14.5103 13.7256 8.3940 13.4462 5.0817 7.4809 13.4897 5.9461 7.4065 14.5492 12.8307 8.3940 14.5083 13.2767 8.3940 14.1892 8.6576 6.0942 14.5129 12.2579 4.4242 13.1371 6.0516 7.4443 14.3720 11.7057 4.6567 14.5075 12.4401 5.3514 14.4520 12.3473 8.3940 14.2837 11.8380 4.5186 14.4936 11.9805 8.3940 14.4915 11.4411 8.3940 14.4376 13.2031 8.3940 14.9407 11.8076 3.5194 14.5666 9.0322 8.3940 14.1196 6.1299 7.3289 14.5500 13.2907 8.3940 14.4884 12.4075 8.3940 14.5511 11.0664 8.3940 14.5624 12.7204 8.3940 14.5400 13.5104 8.3940 14.5713 13.2465 8.3940 14.6558 13.9898 8.3940 13.5170 6.8111 7.4180 14.6078 14.4927 8.3940 14.4775 11.6081 8.3940 14.5026 14.0978 8.3940 14.5593 10.7756 8.3940 14.2159 7.9176 6.0366 14.4630 11.4088 8.3940 14.5201 11.4195 8.3940 13.5694 7.5290 7.3530 14.0317 7.7136 6.5134 13.9759 7.5986 6.6668 14.4887 12.9653 8.3940 14.4806 12.0833 8.3940 14.4810 12.4888 8.3940 14.4919 12.9479 8.3940 12.5034 3.7819 7.3649 14.5546 13.7289 8.3940 14.6290 11.7868 4.4708 14.5512 11.6462 8.3940 14.8154 11.7151 4.2376 14.2171 12.0081 5.0223 14.5736 13.5100 8.3940 14.5891 11.1716 8.3940 14.5497 11.8867 8.3940 14.5751 13.6985 8.3940 14.5664 11.7232 4.4442 14.3891 12.2155 5.1876 14.5432 13.2018 8.3940 14.6392 14.0200 8.3940 14.8167 11.1560 5.2308 14.5790 13.4369 8.3940 14.9832 11.4618 5.1634 14.6511 10.6758 8.3940 14.5543 12.0750 8.3940 14.1269 10.9556 3.4109 13.1683 11.1053 3.9535 14.6665 14.2074 8.3940 12.8241 10.6911 4.4100 12.4735 10.7671 4.2939 13.6087 10.8831 3.7242 14.5912 12.8954 8.3940 14.9932 11.0598 5.1121 14.5913 11.8985 8.3940 13.8905 11.2245 3.8384 12.0427 5.9789 7.6625 14.6204 11.7682 8.3940 14.3137 8.8197 5.7839 14.2242 7.4989 6.7347 14.5076 10.6831 4.1250 13.9755 9.1987 4.9668 13.4381 8.1830 7.1740 12.3828 9.7536 4.8810 11.4085 5.9281 7.4972 14.2025 8.9853 3.8673 14.9007 9.8541 6.4480 14.7019 8.9772 6.1273 14.7041 9.7389 4.9047 12.5652 11.2619 7.1648 13.9417 12.4996 6.6401 14.6352 9.9709 4.9854 13.3100 8.6805 5.1095 14.7651 9.8012 8.3940 14.6449 6.9157 6.7471 14.0983 7.6567 7.4562 11.6480 11.4588 7.5643 14.8193 9.2234 5.4133 13.8022 9.1127 7.5100 13.5301 14.4651 6.8330 14.0098 9.5148 3.8081 14.4812 9.6249 5.5408 13.8898 12.0732 6.4325 14.9178 10.0382 5.1120 14.3389 10.0847 4.4221 9.7714 12.3558 7.9063 12.0394 10.8331 7.6311 12.7078 9.6770 8.1254 14.4076 9.0042 3.4288 14.7736 9.5893 8.3940 12.6597 12.5734 5.8818 14.7429 9.8313 3.9169 14.8173 8.5444 8.3940 11.0199 6.9939 8.1101 13.5651 8.0293 6.4083 10.7276 8.6320 7.5670 11.9704 12.1152 6.3581 14.6147 11.0846 5.9851 13.9046 8.3753 6.0206 11.7238 14.3676 7.3664 11.9081 11.0084 7.7099 14.7459 11.3475 5.9759 13.3066 11.5806 7.6322 14.7775 10.1496 8.3940 12.5288 12.2263 5.8888 14.8284 11.1781 8.3940 14.5142 10.9049 3.1946 12.0263 13.7992 6.9729 14.7216 9.8732 8.3940 14.6872 11.7613 6.4006 13.6281 11.5430 5.4268 12.2681 6.0471 7.5081 14.7598 9.8235 8.3940 10.3176 13.7438 7.9198 14.7423 9.6431 8.3940 14.3297 9.2605 5.4509 13.2268 8.5246 5.5368 13.9349 9.7620 4.5375 14.7698 9.0032 8.3940 9.3547 9.2276 7.8796 14.8346 10.9480 4.8954 14.6268 10.2516 8.3940 13.2380 9.2984 5.5131 13.1870 14.5104 7.6059 14.2542 8.4894 6.0892 12.0683 6.7639 7.3543 14.7017 10.8312 8.3940 14.6113 12.6294 8.3940 13.7551 8.1405 6.1442 13.3715 7.9046 6.8134 13.7289 8.8965 5.0023 14.5382 8.9270 5.8674 14.9206 6.8212 5.2243 14.4357 9.3871 5.4858 14.7872 12.9458 8.3940 10.3966 10.8147 7.8178 14.0464 8.3459 5.6977 13.9533 8.2417 5.8065 14.6270 10.3497 4.8910 14.5151 10.2970 4.3850 14.6872 11.2088 8.3940 14.9779 10.6523 4.6103 10.4028 14.9742 7.8500 12.9272 7.6661 6.7604 14.5607 8.7217 5.2595 11.1059 13.0927 7.3738 13.0714 9.9354 4.3636 10.1800 13.3595 7.9169 13.8099 9.6359 4.2697 11.3032 4.6593 7.5614 11.0736 11.3003 8.0289 11.4415 11.5050 7.6458 13.1352 7.9034 6.4123 14.7457 14.4585 8.3940 12.7128 6.9364 7.2811 14.7736 11.7885 8.3940 14.7568 14.4331 8.3940 14.5588 9.3586 5.1877 13.0745 7.3925 7.0182 14.3477 12.6006 3.6624 14.8508 6.9501 5.5089 14.8186 11.8622 3.7473 14.7376 10.2963 4.9296 13.4684 8.0970 6.0810 11.7059 5.5671 7.5406 12.8326 11.6860 5.9879 14.7088 11.1394 8.3940 13.1858 7.7914 6.6566 11.2992 6.7473 7.7060 14.0714 11.4322 5.5128 14.2613 10.1675 4.5610 11.8654 8.7499 7.7820 14.7380 14.0639 8.3940 14.7788 10.6437 8.3940 14.2392 8.5935 4.8942 14.6646 9.9163 8.3940 12.4279 13.9565 6.7313 14.7156 11.3186 8.3940 14.7137 13.5259 8.3940 14.7516 11.0234 8.3940 14.6883 13.2831 8.3940 14.7640 9.7054 4.9314 13.0230 7.7565 7.4376 12.1429 11.7822 6.3371 12.1842 13.4147 6.2038 14.7684 14.0383 8.3940 13.9385 9.2566 3.8012 13.9111 11.6266 5.9407 12.9469 10.1460 6.9460 14.6943 13.1665 8.3940 14.9261 10.9023 5.4887 14.8110 10.6229 8.3940 14.8087 10.6793 8.3940 14.7109 11.8720 8.3940 11.4502 12.8055 6.9187 13.3030 14.2685 7.5395 14.8663 10.6765 8.3940 14.7732 11.2717 8.3940 14.9591 10.1484 5.2157 14.7685 13.9952 8.3940 14.7319 13.1718 8.3940 14.7192 12.7046 8.3940 11.8178 11.0262 7.6131 14.5038 8.9673 3.3933 11.7155 11.7066 7.0568 14.7739 11.6708 8.3940 14.8657 10.0798 4.3206 14.3620 9.5326 7.1646 12.2974 14.7881 7.7582 14.8099 13.8282 8.3940 13.4604 10.7384 7.3708 14.6413 11.7280 3.4566 14.8216 10.7866 8.3940 13.3589 10.5076 7.3990 14.7285 11.8899 6.0080 14.3046 11.2618 7.1165 14.7335 9.1482 4.3219 12.8341 10.2399 7.5750 13.1403 14.2118 7.4027 13.7323 13.7431 7.1536 14.8469 10.6896 8.3940 12.6180 12.3482 7.9996 14.8216 13.3456 8.3940 14.8042 9.9655 8.3940 14.8085 8.9491 8.3940 14.8249 12.0785 2.5652 13.4846 10.0683 7.8598 13.0971 12.0694 7.8457 
        </DataArray>
    </Points>
    <PointData>
        <DataArray type="Float32" Name="tag" format="ascii">
            29691.0000 79995.0000 87707.0000 83247.0000 84467.0000 81067.0000 81147.0000 89763.0000 92787.0000 84695.0000 136783.0000 160427.0000 160103.0000 171079.0000 159383.0000 147207.0000 174479.0000 158219.0000 165831.0000 163851.0000 151143.0000 158659.0000 160523.0000 151567.0000 166163.0000 154447.0000 162731.0000 154219.0000 171367.0000 171795.0000 171507.0000 162183.0000 160667.0000 170991.0000 177835.0000 177575.0000 156719.0000 156559.0000 183111.0000 184647.0000 176551.0000 151171.0000 157191.0000 76783.0000 227819.0000 208503.0000 216539.0000 208675.0000 63887.0000 58819.0000 224175.0000 224987.0000 227735.0000 221339.0000 217803.0000 234119.0000 221867.0000 73151.0000 231267.0000 76515.0000 92403.0000 235475.0000 223563.0000 87739.0000 213879.0000 234107.0000 222623.0000 143071.0000 66419.0000 265279.0000 261027.0000 96747.0000 84295.0000 98671.0000 87139.0000 98675.0000 92515.0000 100251.0000 97927.0000 94639.0000 105807.0000 109275.0000 124015.0000 130603.0000 104843.0000 94643.0000 117891.0000 98599.0000 84435.0000 123175.0000 96695.0000 98719.0000 80843.0000 109151.0000 117415.0000 95339.0000 124887.0000 96635.0000 130819.0000 99323.0000 102995.0000 121203.0000 98767.0000 241723.0000 124807.0000 363311.0000 112811.0000 80051.0000 359831.0000 95947.0000 121187.0000 112571.0000 369999.0000 368183.0000 397543.0000 388547.0000 394055.0000 384919.0000 353711.0000 381255.0000 381151.0000 341599.0000 138547.0000 147219.0000 136007.0000 373803.0000 372359.0000 109855.0000 141763.0000 103175.0000 372019.0000 65579.0000 368863.0000 349423.0000 86071.0000 59667.0000 104059.0000 125051.0000 124743.0000 140103.0000 372563.0000 95427.0000 122635.0000 130495.0000 382559.0000 387071.0000 112767.0000 73947.0000 383191.0000 385051.0000 396151.0000 365215.0000 103959.0000 390951.0000 143759.0000 372143.0000 390563.0000 392303.0000 385087.0000 393011.0000 390927.0000 119659.0000 100427.0000 111503.0000 134067.0000 139367.0000 144255.0000 118179.0000 96755.0000 104915.0000 402635.0000 112759.0000 68047.0000 86931.0000 96055.0000 129687.0000 397899.0000 388751.0000 419651.0000 401079.0000 417923.0000 396007.0000 404531.0000 383087.0000 142535.0000 443283.0000 151983.0000 464419.0000 149983.0000 459367.0000 134055.0000 406259.0000 413071.0000 155663.0000 140123.0000 456119.0000 413103.0000 409499.0000 432159.0000 408051.0000 148271.0000 394355.0000 151963.0000 114991.0000 120183.0000 430447.0000 175551.0000 418071.0000 143511.0000 137903.0000 93151.0000 147015.0000 116419.0000 157411.0000 109911.0000 396427.0000 90287.0000 127395.0000 90899.0000 104763.0000 397415.0000 120599.0000 136479.0000 404987.0000 396271.0000 405951.0000 133555.0000 139647.0000 140515.0000 129891.0000 409451.0000 134283.0000 399615.0000 149959.0000 415191.0000 418547.0000 122731.0000 118719.0000 127175.0000 124199.0000 430719.0000 406599.0000 140323.0000 110691.0000 416655.0000 121127.0000 428763.0000 104047.0000 140571.0000 436243.0000 432631.0000 86863.0000 432683.0000 434351.0000 436227.0000 158663.0000 430527.0000 147059.0000 434447.0000 461515.0000 149283.0000 456651.0000 404863.0000 428611.0000 459847.0000 458143.0000 433995.0000 462875.0000 466051.0000 473999.0000 456147.0000 441395.0000 480591.0000 467615.0000 445243.0000 445115.0000 212443.0000 411351.0000 454487.0000 489635.0000 454647.0000 486171.0000 475723.0000 443267.0000 456211.0000 472455.0000 445227.0000 446911.0000 486047.0000 493335.0000 491647.0000 464247.0000 178799.0000 467751.0000 448883.0000 176779.0000 472435.0000 462803.0000 462807.0000 474231.0000 462707.0000 461047.0000 466147.0000 487935.0000 475783.0000 487951.0000 175399.0000 467783.0000 150867.0000 212959.0000 466163.0000 200639.0000 477523.0000 461191.0000 470991.0000 177063.0000 471051.0000 201871.0000 456923.0000 460115.0000 456863.0000 170299.0000 466379.0000 425235.0000 172119.0000 438007.0000 488151.0000 463319.0000 464839.0000 93959.0000 152631.0000 464651.0000 466311.0000 454795.0000 450939.0000 382983.0000 460147.0000 158603.0000 468187.0000 464943.0000 464803.0000 445571.0000 447479.0000 145315.0000 426919.0000 469455.0000 467739.0000 459739.0000 468283.0000 453391.0000 475931.0000 458367.0000 468003.0000 491815.0000 489983.0000 462611.0000 63855.0000 468011.0000 152667.0000 89423.0000 461615.0000 469675.0000 434343.0000 386819.0000 439931.0000 449547.0000 463291.0000 469703.0000 471219.0000 132211.0000 469619.0000 471227.0000 466667.0000 469859.0000 472971.0000 138895.0000 90331.0000 464663.0000 185335.0000 468263.0000 152223.0000 136935.0000 104943.0000 146211.0000 451527.0000 471463.0000 474667.0000 469815.0000 118115.0000 468135.0000 464775.0000 472931.0000 156531.0000 460007.0000 98615.0000 99611.0000 151079.0000 484591.0000 492115.0000 112751.0000 118079.0000 439999.0000 137727.0000 146419.0000 156699.0000 486695.0000 466551.0000 486387.0000 152595.0000 447475.0000 477915.0000 481103.0000 138007.0000 477959.0000 241731.0000 136431.0000 477903.0000 476203.0000 482971.0000 447575.0000 490535.0000 490411.0000 476223.0000 117967.0000 494015.0000 152003.0000 206479.0000 225831.0000 313475.0000 493219.0000 489719.0000 
         </DataArray>
    </PointData>
</Piece>
</PolyData>
</VTKFile>