<?xml version="1.0"?>
<VTKFile type="PolyData" version="1.0" byte_order="LittleEndian" header_type="UInt64">
<PolyData>
<Piece NumberOfPoints="1741" NumberOfVerts="0" NumberOfLines="0" NumberOfPolys="0">
    <Points>
        <DataArray type="Float32" NumberOfComponents="3" format="ascii">
        15.3777 5.9782 5.1097 17.7318 10.8534 3.4753 17.3647 10.4736 3.8425 17.9163 10.9694 3.2908 17.9500 10.7971 3.2571 17.3721 10.4211 3.8350 16.8241 10.0000 2.2127 17.2367 8.6107 1.9460 16.9189 8.2475 2.0317 17.9728 10.6403 3.2343 16.8195 9.2033 2.0003 17.1840 8.7536 1.9963 18.3218 10.9405 2.8853 16.9466 9.0172 1.3990 17.6219 10.7533 3.5852 16.2339 7.0069 4.3228 17.1886 8.7016 1.9924 16.6988 7.7914 2.4714 17.7700 11.0138 3.4371 17.7194 10.3841 3.4877 17.9088 11.3958 3.2983 15.9394 7.0836 4.1795 17.2003 8.3598 2.2971 16.7943 7.9120 4.4170 17.8114 10.6691 3.3957 17.7179 10.7172 3.4892 16.0595 7.5775 3.7537 18.0494 11.3442 3.1577 16.3511 9.0063 2.0105 17.7811 11.2595 3.4260 17.5606 11.3775 3.6466 16.8094 7.8403 2.4482 18.0497 11.3436 3.1574 16.4720 7.3042 4.4936 16.8332 8.4616 2.0855 17.8494 11.3823 3.3577 16.2871 10.0000 2.2236 18.0514 10.9569 3.1557 16.2880 8.9175 2.5348 16.7115 8.2458 2.4165 16.7316 8.3916 2.3292 16.1182 8.9615 2.4236 16.8787 8.1732 2.3335 17.1037 8.3404 2.9319 16.6799 10.0000 2.1108 16.7704 7.7616 2.6468 18.0265 10.6759 3.1806 18.1614 11.2057 3.0457 17.9925 10.6253 3.2146 18.0987 11.0829 3.1084 17.0956 6.9927 3.3270 16.8309 8.0694 2.9841 16.5583 7.4559 4.1167 16.8007 9.9551 2.9094 18.0207 10.6017 3.1864 17.6830 11.1138 3.5241 15.6403 8.8123 3.5027 16.5805 8.8646 2.4314 18.3730 10.9840 2.8341 16.2919 7.6380 3.5161 16.8467 7.8565 2.1599 18.0311 10.7221 3.1760 16.6073 7.7184 3.3431 16.0939 6.9090 4.3948 16.0386 3.1608 7.2007 15.9752 6.2184 5.2112 18.1872 11.1277 3.0199 16.8028 6.8669 4.4775 16.9595 8.2751 2.3414 16.4605 8.0015 3.5443 16.5794 10.0000 2.3908 15.7655 9.4274 2.9294 17.9258 10.9168 3.2814 15.4739 9.5604 2.8783 16.7996 7.7462 2.7741 17.8427 10.7750 3.3644 15.4867 7.4246 5.1889 17.8493 10.4958 3.3578 16.8005 9.9421 3.9017 18.0630 10.8178 3.1441 17.9060 10.7594 3.3011 16.0958 9.1816 2.8126 16.1275 2.2704 7.1140 16.0187 9.7575 2.3593 17.8132 11.2524 3.3939 15.1581 8.5867 4.3876 16.7171 6.7826 4.1254 17.9224 10.8873 3.2848 17.9225 10.4161 3.2846 17.0427 5.0920 5.1940 16.4495 7.3666 3.6627 16.6721 10.0000 2.4307 16.5707 4.0562 6.3110 17.7939 10.5293 3.4132 16.5913 10.0000 2.2904 17.7440 10.3772 3.4631 17.9936 10.6705 3.2135 16.9154 5.2191 5.4631 17.9069 10.5063 3.3002 17.7762 10.3075 3.4309 18.1423 10.5255 3.0648 17.8150 11.3054 3.3921 15.2468 7.4002 5.7949 18.0885 10.6904 3.1186 15.9620 9.3225 3.7514 18.3227 10.9908 2.8844 17.9778 11.2571 3.2293 17.8237 10.2295 3.3834 16.6861 10.0006 3.0736 16.1914 6.2447 5.4076 18.1187 10.8315 3.0884 17.3110 10.2371 3.8961 17.2663 10.5232 3.9408 16.3296 5.8415 5.5593 16.1551 10.0000 3.4078 17.7351 10.3841 3.4720 15.9036 10.0000 3.1237 17.9912 10.5962 3.2159 15.2567 7.3278 6.0087 18.1836 10.5505 3.0235 17.9307 10.5890 3.2764 18.1859 11.2630 3.0212 15.3535 10.1200 4.1590 15.8615 9.7464 3.5004 16.9996 10.1109 4.2075 18.0219 11.1909 3.1852 15.1801 8.0198 5.2630 15.0317 8.8992 4.7300 16.7404 10.2001 4.4667 17.9749 10.1469 3.2323 17.9371 11.2516 3.2700 18.2113 11.2658 2.9958 15.4071 9.9898 4.4485 17.8212 11.2962 3.3859 15.0909 9.6465 5.3109 17.1167 10.3759 4.0904 18.2542 11.2869 2.9530 17.7714 11.2948 3.4358 18.0509 11.3859 3.1562 15.8373 9.9729 3.4159 15.3167 8.7443 5.1797 17.7151 11.1890 3.4920 18.0997 10.4991 3.1074 15.7466 9.5204 4.2813 15.3594 10.0725 4.3145 15.7661 9.8666 3.7905 16.8260 10.2114 4.3811 17.1484 10.3197 4.0587 17.7297 11.3279 3.4775 15.2249 10.0507 5.2717 17.1904 10.5450 4.0167 18.0361 10.5285 3.1710 16.6073 10.3117 4.5998 18.2604 11.0602 2.9467 16.9603 10.1938 4.2468 18.1252 10.7568 3.0820 18.1591 10.5008 3.0480 18.1623 10.8925 3.0448 17.9630 10.9115 3.2441 18.1785 10.7549 3.0286 18.0741 11.2117 3.1330 18.0666 11.1730 3.1405 16.6645 10.2708 4.5426 17.2686 10.4643 3.9385 16.4843 10.2402 4.7228 17.2892 10.3699 3.9179 15.4122 8.7482 5.3251 16.6916 10.1498 4.5155 18.1527 10.7827 3.0544 16.9171 10.4190 4.2900 16.9730 10.4227 4.2341 17.9054 10.9290 3.3017 15.0567 9.0203 5.8095 17.1142 11.8276 4.0929 18.2159 10.7743 2.9912 18.0838 11.2476 3.1233 18.1817 11.0431 3.0254 17.5900 10.3664 3.6171 17.9057 10.5207 3.3014 17.9471 10.8488 3.2600 17.8189 10.9204 3.3883 16.3070 10.0000 3.7132 18.0369 10.8453 3.1702 15.4641 10.4175 4.6210 17.6682 10.4604 3.5389 18.1038 11.3574 3.1033 17.9588 10.9436 3.2483 17.9222 10.5379 3.2849 17.3060 10.5315 3.9012 17.9194 10.9948 3.2877 15.9424 10.0000 4.2924 17.7541 11.1692 3.4530 16.5606 10.0000 2.6825 15.9571 10.0000 3.8158 17.4010 10.0000 3.4275 16.0223 10.0000 3.3861 18.1234 10.5777 3.0837 17.9399 11.3709 3.2672 18.3326 10.9732 2.8745 17.7633 11.1006 3.4438 17.8413 10.7109 3.3658 15.8332 9.7109 4.5709 17.7842 10.9788 3.4229 17.7640 10.2477 3.4431 17.0407 10.4186 4.1664 17.6916 11.2439 3.5155 17.2152 11.7024 3.9919 18.0574 10.3986 3.1497 15.4857 9.6866 5.3954 18.1732 11.1630 3.0339 18.1515 10.8859 3.0556 17.0237 10.4473 4.6286 17.8242 11.2056 3.3829 15.9716 9.8768 3.5011 17.4729 10.3687 3.7342 17.8567 10.7358 3.3504 17.2164 11.8786 3.9907 17.8917 10.8146 3.3154 17.6241 11.2348 3.5830 16.0208 9.9668 3.2179 18.1244 10.8229 3.0827 17.5244 10.0000 1.1753 15.8686 9.2294 2.4096 15.7219 9.7223 4.9324 17.7711 11.1133 3.4360 15.4379 10.0000 4.2373 17.4626 11.0732 3.7445 16.0701 9.3042 2.9108 15.2159 10.0963 4.3498 16.2869 9.4401 4.9359 17.8624 10.6756 3.3447 18.0655 11.3753 3.1416 15.9337 9.0172 2.4882 17.7947 10.9072 3.4124 18.1191 10.8737 3.0880 18.0020 10.2947 3.2051 15.9131 9.2461 4.3157 17.8576 10.5415 3.3495 16.6283 9.8828 3.1067 18.1088 10.4695 3.0983 17.4040 9.9297 3.4666 17.8232 11.3328 3.3839 17.0970 11.9061 4.1101 18.0218 11.0200 3.1853 16.5711 9.0841 2.1636 16.5933 10.0000 2.5825 17.3504 11.2918 3.8567 17.9712 11.1747 3.2359 17.4111 10.0000 0.7875 17.6238 11.3590 3.5833 18.0994 10.6676 3.1078 17.7415 10.6405 3.4656 16.1255 9.6710 3.9517 17.7334 10.7339 3.4737 15.5043 9.0225 3.3723 16.8007 10.0000 3.1498 17.8865 10.3897 3.3206 17.7533 10.6640 3.4538 17.5702 10.3952 3.6369 16.9848 11.8936 4.2223 15.7853 6.8692 3.0486 17.7768 10.7295 3.4303 17.5094 11.1833 3.6977 17.1153 11.9892 4.0918 18.1504 10.7568 3.0567 17.1556 11.4745 4.0515 16.7349 10.0000 2.9511 17.4086 11.2785 3.7985 16.8461 9.3771 3.3607 16.5073 9.0174 4.1120 15.3860 9.2434 4.8625 17.9938 10.5877 3.2133 16.0685 7.2523 2.4073 18.2314 10.7129 2.9757 15.1018 7.5300 2.7867 18.0665 11.2034 3.1407 16.0297 9.2051 3.5716 15.7709 9.1131 4.9557 18.0085 11.3234 3.1986 15.4236 9.6969 4.4789 18.1321 10.8284 3.0750 18.0726 10.4379 3.1345 16.1404 6.7969 3.5267 17.4418 10.0000 1.4544 18.1246 10.7620 3.0825 18.1939 10.7631 3.0132 17.9248 10.6338 3.2823 17.6330 11.2914 3.5741 17.7576 10.2346 3.4495 17.8717 10.4638 3.3354 17.5302 11.2343 3.6769 17.6356 11.1604 3.5715 18.1408 10.7978 3.0663 18.2295 10.6821 2.9776 17.9682 11.3564 3.2389 18.1075 10.4281 3.0996 17.1600 11.8120 4.0471 15.6903 7.4780 3.8641 16.2997 8.5696 4.2209 15.2752 9.0593 4.5877 15.9514 8.5736 4.1842 17.1000 11.9470 4.1071 17.8649 10.5425 3.3422 18.1288 10.3814 3.0783 17.5492 10.8062 3.6579 17.1035 11.9775 4.1036 17.3907 10.0000 1.8267 17.9960 10.4351 3.2111 15.8968 7.4905 2.5807 17.1383 9.0016 3.2919 17.0457 11.9049 4.1614 16.7802 7.7350 2.0125 17.4598 10.9850 3.7473 17.6051 11.3098 3.6020 17.0490 11.9297 4.1581 17.9558 11.2916 3.2513 17.9219 11.2140 3.2853 17.1213 11.7937 4.0858 16.2447 6.6266 3.9575 17.7169 11.3742 3.4902 17.4090 9.9419 3.1632 17.8825 10.1556 3.3246 17.6780 11.3391 3.5291 15.9960 7.0864 4.0426 17.5536 10.4414 3.6535 16.6461 8.2637 2.6020 15.7440 7.2864 3.3388 17.6972 10.8018 3.5099 17.3268 10.0000 2.0580 17.2829 11.9943 3.9242 17.4214 10.2574 3.7857 15.4315 8.4122 4.7884 16.1065 7.4683 3.8777 18.1507 10.6246 3.0564 15.3854 7.7581 4.6395 18.1311 10.6490 3.0760 17.5664 10.6959 3.6407 17.9266 10.3685 3.2805 17.7985 10.7190 3.4086 16.2081 6.9361 2.5704 17.2960 11.5840 3.9111 15.3749 7.2544 4.6806 15.3090 6.7959 4.0707 15.9589 6.7059 4.4940 15.5024 7.3676 3.2578 16.4067 7.3446 2.7631 15.1082 7.3289 4.1310 16.1433 7.0498 4.0370 18.0799 10.2297 3.1272 17.6192 10.7657 3.5880 16.7393 8.8706 3.0131 15.6053 7.7093 5.2664 17.2056 11.4715 4.0015 18.0198 10.4857 3.1873 17.1700 11.6389 4.0371 18.2161 10.6695 2.9910 17.4699 10.7638 3.7372 15.3698 6.7065 4.1383 17.3939 10.9858 3.8132 15.9454 8.7002 2.1549 15.6334 6.8770 4.3596 18.0667 10.4501 3.1404 17.7290 10.0892 3.4781 17.5838 11.3099 3.6233 17.8445 10.6370 3.3626 16.8958 7.9172 2.8605 17.1265 11.8639 4.0806 17.1026 10.8660 4.1045 15.9982 7.7859 2.8397 17.4496 11.1134 3.7575 17.4230 10.6538 3.7841 18.1683 10.7554 3.0388 17.2606 11.3746 3.9465 17.5372 11.1782 3.6699 18.0756 11.2706 3.1315 17.7838 10.5910 3.4233 16.7034 7.3368 3.3786 17.7577 10.1736 3.4494 17.7533 11.0311 3.4538 17.2843 7.8469 3.5386 17.5012 11.0859 3.7059 17.3683 11.2999 3.8389 17.8073 10.9253 3.3998 17.9119 11.3984 3.2952 17.0764 11.7037 4.1307 15.5118 6.4623 4.9881 18.1552 10.4386 3.0519 17.7976 11.0309 3.4095 15.6883 5.9067 5.0325 15.8559 5.8667 4.8747 17.0889 9.9558 2.1849 16.8596 11.8406 4.3475 17.9851 11.1085 3.2220 17.7043 11.3042 3.5028 16.9269 11.9791 4.2803 17.7867 10.0764 3.4204 17.7262 10.7059 3.4809 15.5423 6.2269 5.4450 15.3177 6.1124 5.6753 16.8861 8.8180 2.8312 15.3651 6.4714 5.0237 15.9266 5.1304 6.2079 17.2920 10.7251 3.9151 15.6426 5.9000 5.0996 17.2999 11.4378 3.9072 17.9653 10.6661 3.2418 15.0777 6.0448 5.2713 17.1984 11.5803 4.0087 17.9824 11.1218 3.2247 17.1458 10.0000 3.3952 16.8582 5.4682 4.6807 17.7746 10.7624 3.4325 17.0190 11.5965 4.1881 17.6406 10.7576 3.5665 15.7998 5.5486 5.4705 17.6760 11.3289 3.5311 16.9289 8.2452 2.7223 17.3363 11.6756 3.8708 15.5949 4.9769 6.0290 15.6560 5.8719 5.2485 16.8892 11.8856 4.3179 16.5210 7.8521 3.4669 17.5603 11.0648 3.6468 16.9459 11.6278 4.2612 15.2536 6.4272 5.0340 17.2430 11.7711 3.9641 16.9350 11.9215 4.2721 17.3987 11.1637 3.8
[...]
    <PointData>
        <DataArray type="Float32" Name="tag" format="ascii">
            131.0000 207.0000 299.0000 383.0000 627.0000 739.0000 935.0000 1099.0000 1119.0000 1131.0000 1171.0000 1211.0000 1307.0000 1551.0000 1567.0000 1791.0000 1803.0000 1855.0000 1883.0000 1907.0000 1927.0000 2035.0000 2083.0000 2191.0000 2391.0000 2475.0000 2491.0000 2563.0000 2623.0000 2767.0000 3023.0000 3087.0000 3195.0000 3271.0000 3423.0000 3567.0000 3663.0000 3711.0000 3775.0000 3795.0000 3819.0000 3883.0000 4067.0000 4127.0000 4183.0000 4187.0000 4395.0000 4403.0000 4415.0000 4551.0000 4555.0000 4583.0000 4643.0000 4751.0000 4891.0000 4899.0000 4947.0000 5035.0000 5107.0000 5115.0000 5271.0000 5299.0000 5455.0000 5643.0000 5655.0000 5703.0000 5767.0000 5815.0000 5867.0000 5891.0000 6055.0000 6207.0000 6275.0000 6663.0000 6671.0000 6851.0000 6911.0000 7147.0000 7175.0000 7183.0000 7427.0000 7495.0000 7575.0000 7783.0000 7867.0000 7883.0000 7919.0000 7983.0000 8199.0000 8263.0000 8291.0000 8367.0000 8603.0000 8615.0000 8803.0000 8815.0000 9019.0000 9027.0000 9039.0000 9255.0000 9295.0000 9379.0000 9407.0000 9459.0000 9471.0000 9639.0000 9695.0000 9751.0000 9799.0000 9963.0000 10131.0000 10155.0000 10279.0000 10311.0000 10419.0000 10495.0000 10515.0000 10531.0000 10611.0000 10691.0000 10763.0000 11015.0000 11051.0000 11283.0000 11351.0000 11367.0000 11427.0000 11435.0000 11439.0000 11471.0000 11551.0000 11567.0000 11759.0000 11807.0000 11855.0000 12011.0000 12027.0000 12127.0000 12143.0000 12171.0000 12211.0000 12219.0000 12239.0000 12279.0000 12303.0000 12359.0000 12395.0000 12411.0000 12427.0000 12631.0000 12719.0000 12939.0000 13023.0000 13075.0000 13083.0000 13119.0000 13179.0000 13415.0000 13775.0000 13787.0000 13811.0000 13847.0000 13875.0000 14087.0000 14151.0000 14179.0000 14215.0000 14255.0000 14295.0000 14327.0000 14491.0000 14555.0000 14763.0000 14827.0000 14899.0000 14903.0000 15039.0000 15083.0000 15279.0000 15283.0000 15399.0000 15407.0000 15567.0000 15575.0000 15671.0000 15695.0000 15783.0000 15935.0000 15971.0000 16007.0000 16031.0000 16087.0000 16099.0000 16135.0000 16147.0000 16187.0000 16539.0000 16643.0000 16703.0000 16807.0000 16811.0000 17007.0000 17103.0000 17231.0000 17235.0000 17375.0000 17467.0000 17555.0000 17567.0000 17651.0000 17903.0000 17919.0000 17947.0000 17955.0000 18279.0000 18511.0000 18523.0000 18763.0000 19115.0000 19143.0000 19231.0000 19347.0000 19395.0000 19547.0000 19923.0000 20267.0000 20519.0000 20707.0000 20955.0000 21071.0000 21147.0000 21239.0000 21319.0000 21323.0000 21439.0000 21615.0000 21671.0000 21719.0000 21819.0000 21919.0000 22071.0000 22107.0000 22139.0000 22311.0000 22403.0000 22467.0000 22595.0000 22835.0000 23071.0000 23239.0000 23255.0000 23339.0000 23355.0000 23367.0000 23371.0000 23607.0000 23623.0000 23731.0000 23847.0000 23855.0000 23859.0000 23951.0000 24011.0000 24091.0000 24127.0000 24151.0000 24223.0000 24307.0000 24467.0000 24699.0000 24707.0000 24743.0000 24791.0000 24847.0000 24943.0000 25011.0000 25135.0000 25151.0000 25243.0000 25303.0000 25403.0000 25579.0000 25603.0000 25655.0000 25739.0000 26039.0000 26175.0000 26187.0000 26207.0000 26471.0000 26507.0000 26815.0000 26875.0000 26959.0000 27083.0000 27135.0000 27319.0000 27387.0000 27527.0000 27587.0000 27723.0000 27767.0000 27967.0000 27991.0000 28031.0000 28103.0000 28151.0000 28199.0000 28203.0000 28231.0000 28295.0000 28323.0000 28351.0000 28467.0000 28471.0000 28479.0000 28503.0000 28523.0000 28619.0000 28627.0000 28675.0000 28779.0000 28875.0000 28883.0000 28923.0000 29159.0000 29267.0000 29407.0000 29439.0000 29579.0000 29639.0000 29719.0000 29991.0000 30023.0000 30087.0000 30379.0000 30395.0000 30827.0000 30863.0000 30963.0000 31115.0000 31167.0000 31199.0000 31235.0000 31247.0000 31287.0000 31607.0000 31631.0000 31639.0000 31723.0000 31763.0000 31915.0000 31951.0000 31967.0000 32091.0000 32111.0000 32255.0000 32335.0000 32479.0000 32547.0000 32607.0000 32611.0000 32667.0000 32779.0000 32943.0000 33031.0000 33063.0000 33107.0000 33283.0000 33351.0000 33435.0000 33563.0000 33599.0000 33843.0000 33867.0000 33943.0000 34103.0000 34135.0000 34167.0000 34295.0000 34331.0000 34571.0000 34631.0000 34675.0000 34687.0000 34791.0000 34859.0000 35111.0000 35239.0000 35271.0000 35359.0000 35367.0000 35383.0000 35487.0000 35495.0000 35535.0000 35675.0000 35715.0000 35779.0000 35803.0000 35855.0000 35963.0000 35995.0000 36087.0000 36135.0000 36223.0000 36359.0000 36403.0000 36435.0000 36495.0000 36535.0000 36547.0000 36691.0000 36699.0000 36711.0000 36795.0000 36803.0000 36919.0000 36935.0000 36947.0000 37263.0000 37363.0000 37387.0000 37503.0000 37555.0000 37583.0000 37699.0000 37735.0000 38003.0000 38107.0000 38183.0000 38219.0000 38247.0000 38399.0000 38491.0000 38523.0000 38535.0000 38583.0000 38591.0000 38627.0000 38711.0000 38735.0000 38775.0000 38927.0000 39019.0000 39063.0000 39147.0000 39283.0000 39331.0000 39383.0000 39407.0000 39447.0000 39495.0000 39567.0000 39659.0000 39843.0000 39903.0000 39907.0000 39943.0000 39963.0000 40103.0000 40263.0000 40323.0000 40335.0000 40399.0000 40439.0000 40535.0000 40551.0000 40675.0000 40711.0000 40727.0000 40747.0000 40963.0000 41147.0000 41183.0000 41231.0000 41359.0000 41391.0000 41447.0000 41479.0000 41499.0000 41515.0000 41551.0000 41567.0000 41699.0000 41751.0000 41895.0000 41939.0000 41959.0000 42015.0000 42139.0000 42223.0000 42351.0000 42375.0000 42491.0000 42719.0000 42815.0000 42875.0000 42915.0000 42923.0000 42963.0000 42967.0000 43043.0000 43239.0000 43311.0000 43347.0000 43351.0000 43367.0000 43411.0000 43467.0000 43479.0000 43483.0000 43535.0000 43815.0000 43867.0000 43903.0000 43959.0000 44003.0000 44151.0000 44211.0000 44219.0000 44311.0000 44331.0000 44391.0000 44487.0000 44539.0000 44627.0000 45039.0000 45131.0000 45135.0000 45287.0000 45339.0000 45371.0000 45395.0000 45611.0000 45619.0000 45723.0000 45823.0000 45827.0000 45875.0000 45887.0000 45931.0000 46031.0000 46091.0000 46239.0000 46347.0000 46351.0000 46443.0000 46491.0000 46535.0000 46683.0000 46715.0000 46735.0000 46803.0000 46883.0000 46887.0000 50003.0000 58755.0000 57135.0000 64467.0000 65415.0000 60363.0000 59571.0000 62027.0000 58735.0000 66311.0000 66307.0000 56167.0000 58715.0000 64427.0000 63635.0000 64419.0000 65379.0000 66299.0000 62791.0000 67147.0000 59639.0000 60315.0000 61195.0000 57979.0000 63571.0000 61283.0000 61995.0000 66283.0000 50895.0000 66279.0000 65331.0000 60439.0000 58791.0000 62891.0000 66367.0000 59611.0000 57151.0000 57147.0000 62067.0000 62063.0000 59607.0000 55207.0000 64491.0000 66347.0000 58763.0000 46995.0000 47015.0000 47019.0000 47043.0000 47063.0000 47191.0000 47263.0000 47299.0000 47311.0000 47347.0000 47355.0000 47411.0000 47419.0000 47575.0000 47647.0000 47759.0000 47831.0000 47951.0000 48003.0000 48039.0000 48071.0000 48115.0000 48219.0000 48255.0000 48363.0000 48411.0000 48447.0000 48471.0000 48551.0000 48575.0000 48791.0000 48883.0000 48903.0000 48931.0000 49099.0000 49111.0000 49155.0000 49199.0000 49299.0000 49303.0000 49311.0000 49507.0000 49523.0000 49643.0000 49671.0000 49683.0000 49767.0000 49771.0000 49863.0000 49967.0000 49991.0000 50039.0000 50047.0000 50059.0000 50063.0000 50123.0000 50139.0000 50215.0000 50311.0000 50323.0000 50415.0000 50539.0000 50675.0000 50735.0000 50751.0000 50795.0000 50815.0000 51007.0000 51087.0000 51191.0000 51199.0000 51271.0000 51275.0000 51291.0000 51323.0000 51379.0000 51527.0000 51615.0000 51691.0000 51799.0000 51815.0000 51843.0000 51891.0000 51999.0000 52219.0000 52391.0000 52491.0000 52671.0000 52675.0000 52827.0000 52835.0000 52923.0000 52931.0000 52939.0000 52963.0000 52995.0000 53043.0000 53107.0000 53123.0000 53131.0000 53187.0000 53191.0000 53195.0000 53363.0000 53407.0000 53423.0000 53515.0000 53535.0000 53539.0000 53583.0000 53595.0000 53599.0000 53963.0000 54267.0000 54415.0000 54499.0000 54519.0000 54547.0000 54599.0000 54727.0000 54755.0000 54827.0000 54935.0000 55011.0000 55015.0000 55035.0000 55039.0000 55143.0000 55283.0000 55399.0000 55411.0000 55443.0000 55487.0000 55543.0000 55575.0000 55623.0000 55651.0000 55703.0000 55823.0000 56031.0000 56047.0000 56071.0000 56075.0000 56103.0000 56119.0000 56307.0000 56375.0000 56467.0000 56535.0000 56599.0000 56603.0000 56731.0000 56759.0000 56779.0000 56947.0000 56991.0000 57063.0000 57183.0000 57207.0000 57395.0000 57459.0000 57487.0000 57787.0000 57847.0000 57891.0000 58003.0000 58091.0000 58095.0000 58099.0000 58111.0000 58143.0000 58179.0000 58331.0000 58339.0000 58379.0000 58471.0000 58527.0000 58539.0000 58607.0000 58647.0000 58655.0000 58819.0000 58875.0000 58903.0000 59035.0000 59151.0000 59167.0000 59423.0000 59435.0000 59459.0000 59667.0000 59731.0000 59923.0000 59927.0000 59935.0000 59947.0000 60063.0000 60107.0000 60167.0000 60231.0000 60475.0000 60495.0000 60563.0000 60623.0000 60651.0000 60671.0000 60675.0000 60843.0000 60863.0000 61407.0000 61411.0000 61507.0000 61587.0000 61607.0000 61615.0000 61627.0000 61659.0000 61847.0000 61895.0000 61899.0000 61967.0000 62139.0000 62211.0000 62295.0000 62419.0000 62431.0000 62447.0000 62527.0000 62535.0000 62559.0000 62599.0000 62675.0000 62747.0000 62951.0000 63071.0000 63403.0000 63815.0000 63855.0000 63887.0000 63911.0000 63927.0000 63995.0000 64019.0000 64059.0000 64123.0000 64163.0000 64295.0000 64587.0000 64607.0000 64683.0000 64803.0000 64811.0000 64835.0000 64931.0000 64939.0000 64999.0000 65099.0000 65143.0000 65163.0000 65167.0000 65271.0000 65535.0000 65551.0000 65579.0000 65639.0000 65767.0000 65823.0000 65883.0000 65915.0000 65927.0000 65947.0000 65975.0000 65983.0000 66003.0000 66075.0000 66111.0000 66155.0000 66167.0000 66179.0000 66215.0000 66243.0000 66255.0000 66419.0000 66423.0000 66439.0000 66479.0000 66523.0000 66627.0000 66703.0000 66707.0000 66767.0000 66955.0000 67087.0000 67091.0000 81591.0000 77295.0000 73827.0000 81631.0000 80735.0000 82479.0000 84167.0000 73815.0000 72243.0000 79863.0000 75543.0000 83315.0000 73803.0000 72999.0000 84147.0000 86743.0000 79827.0000 80691.0000 72223.0000 82451.0000 80683.0000 86711.0000 74655.0000 72983.0000 72219.0000 85827.0000 85823.0000 74635.0000 78979.0000 81527.0000 84099.0000 78095.0000 81515.0000 71495.0000 79759.0000 84975.0000 72207.0000 84967.0000 86667.0000 72203.0000 77203.0000 69351.0000 69439.0000 81479.0000 71471.0000 83231.0000 73731.0000 83227.0000 70135.0000 80611.0000 73855.0000 80603.0000 69423.0000 76311.0000 84931.0000 72179.0000 69415.0000 69411.0000 75575.0000 71559.0000 67979.0000 75571.0000 81451.0000 81447.0000 78911.0000 80583.0000 79699.0000 84911.0000 84011.0000 67267.0000 67283.0000 67687.0000 67715.0000 67771.0000 67823.0000 67887.0000 68047.0000 68059.0000 68067.0000 68179.0000 68247.0000 68295.0000 68375.0000 68423.0000 68451.0000 68487.0000 68511.0000 68587.0000 68607.0000 68803.0000 68875.0000 68883.0000 68923.0000 69059.0000 69067.0000 69119.0000 69187.0000 69199.0000 69471.0000 69479.0000 69487.0000 69491.0000 69651.0000 69659.0000 69731.0000 69831.0000 69879.0000 69903.0000 69959.0000 69995.0000 70255.0000 70279.0000 70367.0000 70379.0000 70467.0000 70495.0000 70519.0000 70659.0000 70683.0000 70703.0000 70751.0000 70879.0000 70911.0000 70931.0000 70959.0000 71011.0000 71059.0000 71095.0000 71147.0000 71171.0000 71271.0000 71307.0000 71327.0000 71367.0000 71579.0000 71607.0000 71627.0000 71703.0000 71707.0000 71787.0000 71799.0000 71815.0000 71847.0000 71931.0000 71939.0000 71947.0000 71955.0000 72047.0000 72127.0000 72131.0000 72139.0000 72307.0000 72331.0000 72379.0000 72399.0000 72419.0000 72523.0000 72539.0000 72547.0000 72567.0000 72607.0000 72627.0000 72715.0000 72719.0000 72795.0000 73115.0000 73151.0000 73159.0000 73183.0000 73219.0000 73299.0000 73359.0000 73387.0000 73395.0000 73459.0000 73583.0000 73623.0000 73683.0000 73695.0000 73707.0000 73947.0000 73999.0000 74043.0000 74051.0000 74099.0000 74127.0000 74151.0000 74171.0000 74259.0000 74287.0000 74367.0000 74419.0000 74551.0000 74723.0000 74755.0000 74783.0000 74839.0000 74859.0000 74891.0000 74915.0000 74955.0000 74959.0000 75075.0000 75143.0000 75171.0000 75267.0000 75311.0000 75379.0000 75383.0000 75595.0000 75631.0000 75651.0000 75683.0000 75711.0000 75719.0000 75811.0000 75987.0000 76111.0000 76207.0000 76251.0000 76267.0000 76459.0000 76515.0000 76611.0000 76623.0000 76703.0000 76719.0000 76731.0000 76739.0000 76763.0000 76783.0000 76863.0000 76875.0000 76879.0000 76915.0000 76959.0000 76995.0000 77059.0000 77075.0000 77135.0000 77143.0000 77315.0000 77351.0000 77383.0000 77399.0000 77451.0000 77459.0000 77515.0000 77519.0000 77527.0000 77563.0000 77607.0000 77615.0000 77619.0000 77663.0000 77691.0000 77723.0000 77727.0000 77807.0000 77867.0000 77883.0000 77923.0000 77967.0000 78003.0000 78027.0000 78047.0000 78239.0000 78343.0000 78395.0000 78451.0000 78543.0000 78555.0000 78603.0000 78615.0000 78643.0000 78707.0000 78727.0000 78783.0000 78819.0000 78835.0000 78867.0000 79163.0000 79191.0000 79235.0000 79271.0000 79383.0000 79503.0000 79511.0000 79527.0000 79575.0000 79659.0000 79667.0000 79695.0000 79911.0000 79967.0000 79999.0000 80051.0000 80091.0000 80143.0000 80243.0000 80475.0000 80551.0000 80563.0000 80831.0000 80843.0000 81015.0000 81035.0000 81075.0000 81079.0000 81119.0000 81175.0000 81231.0000 81243.0000 81271.0000 81347.0000 81351.0000 81375.0000 81379.0000 81403.0000 81735.0000 81759.0000 81835.0000 81859.0000 81919.0000 81999.0000 82155.0000 82167.0000 82235.0000 82279.0000 82299.0000 82335.0000 82543.0000 82655.0000 82699.0000 82731.0000 82763.0000 82791.0000 82887.0000 83019.0000 83031.0000 83143.0000 83195.0000 83415.0000 83579.0000 83623.0000 83715.0000 83743.0000 83859.0000 83863.0000 83867.0000 83987.0000 83995.0000 84295.0000 84435.0000 84507.0000 84543.0000 84555.0000 84559.0000 84607.0000 84643.0000 84667.0000 84695.0000 84699.0000 84767.0000 84803.0000 84823.0000 84863.0000 84899.0000 85127.0000 85171.0000 85227.0000 85251.0000 85287.0000 85427.0000 85479.0000 85487.0000 85495.0000 85535.0000 85563.0000 85591.0000 85607.0000 85611.0000 85663.0000 85675.0000 85955.0000 85959.0000 86035.0000 86047.0000 86067.0000 86071.0000 86155.0000 86203.0000 86303.0000 86383.0000 86467.0000 86511.0000 86519.0000 86555.0000 97835.0000 91619.0000 91615.0000 93847.0000 87655.0000 88527.0000 101943.0000 91603.0000 105535.0000 103843.0000 88503.0000 90855.0000 99303.0000 103835.0000 98515.0000 93099.0000 91571.0000 89343.0000 90087.0000 93083.0000 105527.0000 93799.0000 95863.0000 90835.0000 91551.0000 105495.0000 93791.0000 97147.0000 91539.0000 97787.0000 88455.0000 91527.0000 99255.0000 107171.0000 101887.0000 101007.0000 99251.0000 106331.0000 95203.0000 97775.0000 94547.0000 92319.0000 100971.0000 94543.0000 100103.0000 105467.0000 90035.0000 100959.0000 99215.0000 106307.0000 106303.0000 95151.0000 105443.0000 99207.0000 104615.0000 101819.0000 101811.0000 107127.0000 101803.0000 87571.0000 100931.0000 106259.0000 100059.0000 102807.0000 99167.0000 100923.0000 106243.0000 89267.0000 97071.0000 89259.0000 101779.0000 100031.0000 105407.0000 101771.0000 97675.0000 100899.0000 102771.0000 87551.0000 104555.0000 90151.0000 99107.0000 93675.0000 97047.0000 98375.0000 97651.0000 101755.0000 107071.0000 101751.0000 101747.0000 104539.0000 107067.0000 100175.0000 107059.0000 106363.0000 94519.0000 106195.0000 107015.0000 107011.0000 103647.0000 104519.0000 100855.0000 102715.0000 90747.0000 100839.0000 106171.0000 106995.0000 97615.0000 94503.0000 95095.0000 101699.0000 89979.0000 99959.0000 106151.0000 97607.0000 92235.0000 89959.0000 104467.0000 88339.0000 99051.0000 93611.0000 100827.0000 99047.0000 106139.0000 98343.0000 97599.0000 95751.0000 101679.0000 106127.0000 100807.0000 96307.0000 100799.0000 101959.0000 102899.0000 102895.0000 93591.0000 101655.0000 106111.0000 99935.0000 106939.0000 101635.0000 102635.0000 98299.0000 104399.0000 103523.0000 99011.0000 99903.0000 101607.0000 101603.0000 102607.0000 103515.0000 102595.0000 103511.0000 105207.0000 102571.0000 86863.0000 86895.0000 86915.0000 86931.0000 86979.0000 86999.0000 87019.0000 87075.0000 87083.0000 87095.0000 87139.0000 87291.0000 87299.0000 87399.0000 87447.0000 87739.0000 87807.0000 87923.0000 87959.0000 87983.0000 88039.0000 88083.0000 88151.0000 88187.0000 88195.0000 88227.0000 88559.0000 88663.0000 88727.0000 88823.0000 88883.0000 88919.0000 88991.0000 89011.0000 89023.0000 89039.0000 89095.0000 89423.0000 89475.0000 89671.0000 89719.0000 89731.0000 89735.0000 89779.0000 89787.0000 89791.0000 89795.0000 89871.0000 89903.0000 89907.0000 90231.0000 90283.0000 90287.0000 90303.0000 90331.0000 90363.0000 90383.0000 90415.0000 90475.0000 90511.0000 90555.0000 90595.0000 90631.0000 90639.0000 90899.0000 90915.0000 90963.0000 91051.0000 91095.0000 91243.0000 91247.0000 91279.0000 91283.0000 91291.0000 91307.0000 91771.0000 91823.0000 91843.0000 91967.0000 91999.0000 92035.0000 92059.0000 92067.0000 92091.0000 92111.0000 92115.0000 92123.0000 92127.0000 92143.0000 92403.0000 92415.0000 92515.0000 92587.0000 92599.0000 92755.0000 92811.0000 93151.0000 93203.0000 93219.0000 93343.0000 93359.0000 93431.0000 93439.0000 93471.0000 93487.0000 93515.0000 93547.0000 93959.0000 93983.0000 94103.0000 94191.0000 94207.0000 94219.0000 94287.0000 94311.0000 94379.0000 94419.0000 94427.0000 94623.0000 94639.0000 94643.0000 94655.0000 94791.0000 94843.0000 95035.0000 95295.0000 95307.0000 95339.0000 95419.0000 95427.0000 95503.0000 95511.0000 95515.0000 95615.0000 95675.0000 95947.0000 96019.0000 96055.0000 96239.0000 96259.0000 96555.0000 96571.0000 96635.0000 96643.0000 96667.0000 96679.0000 96695.0000 96747.0000 96755.0000 96771.0000 96891.0000 96943.0000 97291.0000 97403.0000 97455.0000 97487.0000 97491.0000 97871.0000 97887.0000 97919.0000 97923.0000 97927.0000 97939.0000 98015.0000 98019.0000 98191.0000 98223.0000 98271.0000 98599.0000 98615.0000 98671.0000 98675.0000 98719.0000 98767.0000 98847.0000 98879.0000 98935.0000 98943.0000 98995.0000 99323.0000 99327.0000 99407.0000 99611.0000 99615.0000 99647.0000 99763.0000 100215.0000 100251.0000 100295.0000 100303.0000 100319.0000 100331.0000 100383.0000 100427.0000 100463.0000 100479.0000 100523.0000 100543.0000 100619.0000 100703.0000 100707.0000 100735.0000 101067.0000 101083.0000 101099.0000 101127.0000 101167.0000 101195.0000 101199.0000 101203.0000 101279.0000 101359.0000 101379.0000 101403.0000 101475.0000 101495.0000 101523.0000 101991.0000 102159.0000 102207.0000 102287.0000 102303.0000 102335.0000 102367.0000 102379.0000 102399.0000 102411.0000 102531.0000 102535.0000 102995.0000 103019.0000 103031.0000 103039.0000 103075.0000 103175.0000 103331.0000 103407.0000 103427.0000 103435.0000 103475.0000 103487.0000 103955.0000 103959.0000 104007.0000 104047.0000 104059.0000 104063.0000 104091.0000 104115.0000 104159.0000 104183.0000 104215.0000 104227.0000 104303.0000 104315.0000 104327.0000 104763.0000 104843.0000 104891.0000 104903.0000 104915.0000 104923.0000 104935.0000 104943.0000 104979.0000 105079.0000 105111.0000 105163.0000 105171.0000 105183.0000 105603.0000 105639.0000 105775.0000 105795.0000 105807.0000 105843.0000 105903.0000 105911.0000 105919.0000 105959.0000 105999.0000 106023.0000 106419.0000 106487.0000 106531.0000 106583.0000 106639.0000 106667.0000 106683.0000 106723.0000 106779.0000 106795.0000 106835.0000 106851.0000 
         </DataArray>
    </PointData>
</Piece>
</PolyData>
</VTKFile>