<?xml version="1.0"?>
<VTKFile type="PolyData" version="1.0" byte_order="LittleEndian" header_type="UInt64">
<PolyData>
<Piece NumberOfPoints="2052" NumberOfVerts="0" NumberOfLines="0" NumberOfPolys="0">
    <Points>
        <DataArray type="Float32" NumberOfComponents="3" format="ascii">
        15.5603 6.4889 4.0672 18.2287 10.8534 2.9784 17.8615 10.4736 3.3456 18.4468 10.7971 2.7603 17.8690 10.4211 3.3381 18.4696 10.6403 2.7375 18.1188 10.7533 3.0883 16.4701 7.6970 2.9282 18.2669 11.0138 2.9402 18.2163 10.3841 2.9908 16.1694 7.7982 2.8064 17.0586 8.5856 3.5240 18.3083 10.6691 2.8988 18.2148 10.7172 2.9923 16.2948 8.3547 2.1942 18.2780 11.2595 2.9291 18.0574 11.3775 3.1497 16.6225 7.9762 3.5986 18.3462 11.3823 2.8609 17.3040 9.1343 1.2572 18.5233 10.6759 2.6838 18.4894 10.6253 2.7177 17.2100 7.9134 1.3656 17.1116 8.9261 1.4040 16.6580 8.2164 3.0843 18.5176 10.6017 2.6895 18.1798 11.1138 3.0273 15.6071 9.4666 1.2177 16.5530 8.4600 1.8085 18.5279 10.7221 2.6792 16.8628 8.5669 1.9248 16.3492 7.5718 2.9053 16.1279 6.7481 4.0716 16.9441 7.4764 3.4865 16.6785 8.8514 1.6536 18.3396 10.7750 2.8675 15.5879 7.8162 3.7738 18.3461 10.4958 2.8610 18.4028 10.7594 2.8043 18.3101 11.2524 2.8970 15.2703 9.2004 2.5823 16.8556 7.5096 2.4728 18.4193 10.4161 2.7878 17.2403 5.5638 3.9614 16.6588 8.2103 1.8423 16.8743 4.3675 5.8811 18.2908 10.5293 2.9163 18.2408 10.3772 2.9663 18.4905 10.6705 2.7166 17.0582 5.6085 4.3480 18.4038 10.5063 2.8033 18.2731 10.3075 2.9340 18.6392 10.5255 2.5679 18.3119 11.3054 2.8952 15.3477 7.7147 4.5218 18.5854 10.6904 2.6218 15.8199 9.3842 2.5432 18.3206 10.2295 2.8865 16.6889 10.0000 1.9888 16.3113 6.6789 4.2805 17.8078 10.2371 3.3993 17.7632 10.5232 3.4439 16.3984 6.2909 4.5474 18.2320 10.3841 2.9751 18.4881 10.5962 2.7190 15.3214 7.5167 5.1154 18.6805 10.5505 2.5266 18.4276 10.5890 2.7796 15.9448 9.6951 2.5943 17.4965 10.1109 3.7107 15.3764 8.5152 4.0558 15.0924 9.4687 3.2599 17.2373 10.2001 3.9698 18.2057 10.0000 2.4641 15.4403 10.0000 3.4294 18.3181 11.2962 2.8890 15.0787 10.2144 4.7007 17.6136 10.3759 3.5935 18.2682 11.2948 2.9389 15.3205 9.1691 4.3655 18.2120 11.1890 2.9951 18.5965 10.4991 2.6106 15.6346 9.9277 3.2134 15.8032 10.0000 2.6421 17.3228 10.2114 3.8843 17.6453 10.3197 3.5618 18.2265 11.3279 2.9806 15.6819 10.7560 4.8388 17.6873 10.5450 3.5198 18.5330 10.5285 2.6741 17.1042 10.3117 4.1029 17.4572 10.1938 3.7499 18.6220 10.7568 2.5851 18.6560 10.5008 2.5511 18.6754 10.7549 2.5317 17.1613 10.2708 4.0458 17.7654 10.4643 3.4417 16.9811 10.2402 4.2260 17.7861 10.3699 3.4210 15.4954 9.2080 4.6361 17.1885 10.1498 4.0186 18.6496 10.7827 2.5576 17.4140 10.4190 3.7931 17.4699 10.4227 3.7372 15.1152 9.5936 5.6231 18.7127 10.7743 2.4944 18.0869 10.3664 3.1202 18.4025 10.5207 2.8046 18.3157 10.9204 2.8914 16.3024 10.0000 2.3148 15.2287 10.9153 3.0531 18.1650 10.4604 3.0421 18.4191 10.5379 2.7880 17.8028 10.5315 3.4043 15.9394 10.0000 3.1521 18.2510 11.1692 2.9561 15.9578 10.0000 2.6858 17.4010 10.0000 2.4237 18.6202 10.5777 2.5869 18.2601 11.1006 2.9470 18.3382 10.7109 2.8689 15.6177 10.1167 3.7857 18.2811 10.9788 2.9260 18.2609 10.2477 2.9462 17.5375 10.4186 3.6696 18.1885 11.2439 3.0186 18.5543 10.3986 2.6528 15.2348 10.4582 5.0472 17.4578 10.4788 3.7493 18.3211 11.2056 2.8860 17.9698 10.3687 3.2373 18.3536 10.7358 2.8535 18.3885 10.8146 2.8186 18.1210 11.2348 3.0861 15.5297 10.0000 4.1896 18.2679 11.1133 2.9392 15.4379 10.0000 3.2334 17.9595 11.0732 3.2476 15.3336 10.5380 2.5298 16.0693 9.9953 4.1125 18.3593 10.6756 2.8479 18.2916 10.9072 2.9155 18.4989 10.2947 2.7082 15.7073 9.4904 3.1964 18.3545 10.5415 2.8526 18.6056 10.4695 2.6015 17.4040 9.9297 2.4628 18.3201 11.3328 2.8870 17.8473 11.2918 3.3598 18.1207 11.3590 3.0864 18.5962 10.6676 2.6109 18.2384 10.6405 2.9687 16.0384 10.0000 2.7216 18.2303 10.7339 2.9768 18.3834 10.3897 2.8237 18.2501 10.6640 2.9570 15.0895 9.9719 1.6172 18.0671 10.3952 3.1400 18.2737 10.7295 2.9334 18.0063 11.1833 3.2008 18.6473 10.7568 2.5598 16.7349 10.0000 1.9473 17.9054 11.2785 3.3017 16.5926 9.5070 2.2954 15.2149 9.8605 3.5453 18.4906 10.5877 2.7165 18.7283 10.7129 2.4788 15.9279 9.5733 1.4494 15.4123 9.6046 3.8711 15.4607 10.0000 3.1627 18.5695 10.4379 2.6376 18.6215 10.7620 2.5856 18.6908 10.7631 2.5163 18.4216 10.6338 2.7855 18.1299 11.2914 3.0773 18.2545 10.2346 2.9526 18.3686 10.4638 2.8385 18.0271 11.2343 3.1800 18.1325 11.1604 3.0746 18.6376 10.7978 2.5695 18.7264 10.6821 2.4807 18.6043 10.4281 2.6028 16.5297 9.1671 2.4346 15.2248 9.7236 2.8528 16.1029 9.0364 2.3340 18.3618 10.5425 2.8453 18.6257 10.3814 2.5814 18.0461 10.8062 3.1610 18.4928 10.4351 2.7143 17.9567 10.9850 3.2504 18.1020 11.3098 3.1051 16.4551 7.4080 1.3489 18.2137 11.3742 2.9934 17.4224 9.9847 1.6289 18.2061 10.0000 2.6511 18.1749 11.3391 3.0323 16.1904 7.8961 1.5394 18.0504 10.4414 3.1567 18.1941 10.8018 3.0130 17.9183 10.2574 3.2888 15.4903 8.9411 3.2285 16.3282 8.3064 1.3617 18.6475 10.6246 2.5596 15.5641 8.2839 2.6132 18.6280 10.6490 2.5792 18.0633 10.6959 3.1439 18.4235 10.3685 2.7836 18.2954 10.7190 2.9117 15.5344 7.8703 2.5032 16.1700 7.3883 2.1756 15.3185 8.0784 1.5407 16.3280 7.8575 1.6222 18.5767 10.2297 2.6304 18.1160 10.7657 3.0911 15.6992 8.1356 3.7686 18.5167 10.4857 2.6904 18.7130 10.6695 2.4941 17.9668 10.7638 3.2403 17.8908 10.9858 3.3163 15.8548 7.5856 1.8457 18.5636 10.4501 2.6436 18.2011 10.0000 2.9560 18.0807 11.3099 3.1264 18.3414 10.6370 2.8658 17.5994 10.8660 3.6077 17.9464 11.1134 3.2607 17.9199 10.6538 3.2872 18.6652 10.7554 2.5419 17.7574 11.3746 3.4497 18.0341 11.1782 3.1730 18.2807 10.5910 2.9265 18.1972 10.0000 2.8941 18.2502 11.0311 2.9569 17.9980 11.0859 3.2091 17.8651 11.2999 3.3420 18.3041 10.9253 2.9030 15.7421 7.0406 2.8646 18.6521 10.4386 2.5551 18.2945 11.0309 2.9126 15.8841 6.5337 2.6686 16.0677 6.5462 2.2193 18.2012 11.3042 3.0059 18.2030 10.0000 2.8414 18.2231 10.7059 2.9840 15.7219 6.7109 3.7418 15.4864 6.5219 4.1991 15.6059 7.0293 2.9029 16.1278 5.4011 5.2857 17.7888 10.7251 3.4183 15.8312 6.5072 2.8369 18.4622 10.6661 2.7449 15.2767 6.5972 2.8660 17.1446 10.0000 2.1832 16.9692 6.1456 2.2389 18.2715 10.7624 2.9356 18.1375 10.7576 3.0696 15.9834 6.0871 3.6650 18.1729 11.3289 3.0342 15.8064 5.3802 4.7578 15.8404 6.4619 2.9092 18.0572 11.0648 3.1499 15.4948 6.9951 2.5480 17.8956 11.1637 3.3115 18.1829 10.9073 3.0242 18.5490 10.3958 2.6581 18.0326 10.6156 3.1745 16.7806 4.8985 4.2669 16.9859 4.8968 2.9090 15.6833 5.6499 4.3523 17.8548 10.0653 3.3523 16.2033 5.8669 3.1531 15.4194 5.2012 4.6027 18.0308 10.4728 3.1763 18.5000 10.5281 2.7071 18.5047 10.4201 2.7024 17.4626 11.3246 3.7445 16.8643 4.9778 3.3012 16.2499 0.5433 7.0444 18.5588 10.4344 2.6483 16.9588 5.4658 3.3625 16.5388 8.6419 1.7957 18.0462 11.1904 3.1609 17.6990 10.7023 3.5081 18.2216 11.1762 2.9855 18.0420 10.6119 3.1651 18.2769 11.3231 2.9302 17.6715 10.7297 3.5356 18.4446 10.7667 2.7625 17.9627 11.3173 3.2444 18.0012 10.0000 2.2554 16.6379 3.8525 5.0702 16.4190 7.3689 2.6935 17.4470 11.3325 3.7601 17.5830 10.0000 1.5101 18.2710 10.9127 2.9361 17.9170 10.9903 3.2901 18.2214 10.6811 2.9857 17.6465 10.9327 3.5606 16.4012 6.1286 4.8004 18.1927 10.2310 3.0144 16.4130 9.6962 1.8440 17.0532 2.7025 5.7200 18.1503 10.8257 3.0568 18.5327 10.4573 2.6744 17.7218 10.6047 3.4853 17.4649 10.8546 3.7422 17.8404 11.0371 3.3667 17.7410 11.2717 3.4661 16.5543 8.6545 2.8171 17.8899 11.0823 3.3172 17.1860 8.9311 1.5656 16.8316 9.1079 3.0435 18.2833 10.9654 2.9238 18.4315 10.5274 2.7756 18.3104 11.0926 2.8967 16.5957 8.6069 3.3209 17.0185 10.2983 4.1886 18.4886 10.7608 2.7185 16.4969 7.7492 4.1750 17.1788 11.7454 4.0283 16.3345 8.7486 3.3998 17.5612 10.3121 3.6460 18.1378 11.2703 3.0693 16.9465 8.6737 2.7774 17.4680 10.3868 3.7391 17.7808 10.5301 3.4263 17.3873 9.1937 2.6933 17.0574 7.8433 4.1993 17.3238 8.9624 2.1692 18.2015 10.0000 2.4215 17.4169 11.1184 3.7902 18.0483 11.3398 3.1588 17.6005 10.0000 1.2795 16.5070 7.9528 4.1407 18.0826 10.9326 3.1245 18.0101 9.9913 2.1637 16.9768 8.6909 3.2738 17.6951 11.3794 3.5120 17.5653 10.9821 3.6418 17.0293 10.9707 4.1778 17.8127 10.1189 3.3944 17.9436 11.3400 3.2635 18.1468 10.9298 3.0603 18.1425 10.2906 3.0646 16.8135 8.1849 3.3491 17.0889 7.8216 4.0751 16.7161 7.6231 4.6191 18.1812 11.3354 3.0259 16.5047 7.5259 4.5541 18.2097 11.0230 2.9975 16.8759 10.2575 4.3312 16.8866 7.6027 4.5581 18.2105 11.3013 2.9966 18.1101 11.3248 3.0970 18.1758 11.2335 3.0313 16.0833 7.2587 5.1831 18.3331 10.8093 2.8740 17.6886 10.5128 3.5185 17.4014 10.0000 2.4063 16.0375 7.0300 5.0519 18.1677 11.0279 3.0394 17.8385 11.3574 3.3686 18.6825 6.8590 5.1307 18.8648 8.2182 4.9708 17.3243 11.0037 3.8828 17.8841 8.1284 3.1956 17.9123 8.8409 2.9485 17.7485 11.3642 3.4586 18.6850 8.0676 5.6339 18.2462 8.6776 3.6474 17.0797 11.4092 4.1274 19.0712 7.3275 5.4560 18.0728 11.3969 3.1343 18.8289 6.6265 5.6997 20.8172 4.7853 7.3824 17.6383 10.8522 3.5688 17.8337 11.5155 3.3734 17.5107 7.5688 4.0056 17.2676 11.5375 3.9395 18.4910 9.5470 3.9038 17.7607 11.0309 3.4464 17.4661 11.0490 3.7410 16.8006 7.0300 4.2242 17.1670 10.9902 4.0401 17.8034 11.2927 3.4037 18.0668 11.3781 3.1403 18.3431 8.8778 3.5128 18.4162 10.9644 2.7909 18.5771 10.5514 2.6300 17.3386 11.1696 3.8685 17.3827 10.8514 3.8244 18.4140 11.0777 2.7931 18.3298 10.8993 2.8774 17.9057 11.0553 3.3014 16.8086 7.6623 4.3013 17.7110 10.7200 3.4961 18.1167 10.8819 3.0904 17.0136 8.0249 4.0711 15.9969 6.4082 5.8687 17.6580 10.3599 3.5491 17.8871 10.0000 1.5497 17.1781 10.5519 4.0290 17.0279 7.5560 4.5363 17.3796 7.7611 3.1350 17.5587 8.0337 2.6510 17.6013 9.2393 1.8980 16.4963 7.7031 4.3615 15.8537 6.6979 5.8985 17.9467 11.2739 3.2604 16.9761 11.1628 4.2311 17.4827 10.7027 3.7244 17.3731 11.7934 8.3940 18.0506 11.2704 3.1565 16.2979 7.1867 4.7967 16.4684 7.6746 4.4294 18.1094 10.8339 3.0977 18.1869 11.0460 3.0203 18.2677 10.8064 2.9394 17.7552 11.2278 3.4519 16.3135 13.4831 8.3940 17.9554 11.2214 3.2517 17.8042 11.2615 3.4029 16.3736 7.8625 4.2016 16.7523 7.1991 3.8972 18.1147 10.5576 3.0924 17.8592 11.0479 3.3479 18.0535 11.2445 3.1536 17.0548 
[...]
    <PointData>
        <DataArray type="Float32" Name="tag" format="ascii">
            131.0000 207.0000 299.0000 627.0000 739.0000 1131.0000 1567.0000 1791.0000 1883.0000 1907.0000 2035.0000 2191.0000 2391.0000 2475.0000 2491.0000 2767.0000 3023.0000 3271.0000 3567.0000 4127.0000 4395.0000 4415.0000 4555.0000 4583.0000 4643.0000 4891.0000 4899.0000 4947.0000 5115.0000 5299.0000 5455.0000 5643.0000 5703.0000 5815.0000 5891.0000 6851.0000 6911.0000 7147.0000 7427.0000 7867.0000 7883.0000 7919.0000 8199.0000 8263.0000 8291.0000 8603.0000 8615.0000 8815.0000 9019.0000 9027.0000 9039.0000 9255.0000 9295.0000 9379.0000 9407.0000 9459.0000 9471.0000 9751.0000 9799.0000 9963.0000 10155.0000 10279.0000 10311.0000 10495.0000 10531.0000 10611.0000 10691.0000 10763.0000 11283.0000 11351.0000 11427.0000 11435.0000 11439.0000 11471.0000 11759.0000 11807.0000 11855.0000 12011.0000 12127.0000 12211.0000 12219.0000 12239.0000 12279.0000 12359.0000 12395.0000 12411.0000 12427.0000 12631.0000 12719.0000 12939.0000 13023.0000 13083.0000 13119.0000 13179.0000 13787.0000 13875.0000 14087.0000 14151.0000 14179.0000 14215.0000 14255.0000 14295.0000 14327.0000 14491.0000 14763.0000 14899.0000 15083.0000 15279.0000 15399.0000 15407.0000 15575.0000 15671.0000 15935.0000 15971.0000 16031.0000 16087.0000 16135.0000 16147.0000 16539.0000 16807.0000 16811.0000 17007.0000 17103.0000 17231.0000 17235.0000 17375.0000 17555.0000 17567.0000 17919.0000 17947.0000 18279.0000 18511.0000 18763.0000 19115.0000 19547.0000 19923.0000 20267.0000 20519.0000 20955.0000 21071.0000 21147.0000 21323.0000 21615.0000 21671.0000 21719.0000 21919.0000 22071.0000 22107.0000 22595.0000 23239.0000 23255.0000 23339.0000 23355.0000 23367.0000 23623.0000 23731.0000 23767.0000 23847.0000 23951.0000 24011.0000 24127.0000 24223.0000 24307.0000 24699.0000 24707.0000 24743.0000 24847.0000 25135.0000 25151.0000 25303.0000 25579.0000 25739.0000 26039.0000 26175.0000 26187.0000 26207.0000 26471.0000 26507.0000 26815.0000 26875.0000 26959.0000 27135.0000 27527.0000 27587.0000 27723.0000 27967.0000 27991.0000 28031.0000 28199.0000 28351.0000 28467.0000 28619.0000 28627.0000 28675.0000 28779.0000 28875.0000 28883.0000 28923.0000 29407.0000 29639.0000 29719.0000 29991.0000 30023.0000 30087.0000 30379.0000 30395.0000 30827.0000 30863.0000 31167.0000 31235.0000 31607.0000 31631.0000 31639.0000 31723.0000 31915.0000 31967.0000 32111.0000 32255.0000 32479.0000 32607.0000 32611.0000 32667.0000 32779.0000 32943.0000 33107.0000 33351.0000 33435.0000 33563.0000 33599.0000 33843.0000 33943.0000 34135.0000 34167.0000 34331.0000 34571.0000 34631.0000 34791.0000 34859.0000 35111.0000 35239.0000 35271.0000 35487.0000 35535.0000 35675.0000 35715.0000 35779.0000 35855.0000 35963.0000 35995.0000 36087.0000 36223.0000 36359.0000 36495.0000 36535.0000 36547.0000 36699.0000 36711.0000 36795.0000 36935.0000 36947.0000 37387.0000 37555.0000 37735.0000 38183.0000 38219.0000 38247.0000 38399.0000 38491.0000 38523.0000 38535.0000 38583.0000 38591.0000 38627.0000 39019.0000 39063.0000 39147.0000 39283.0000 39383.0000 39407.0000 39843.0000 39903.0000 39907.0000 39943.0000 40103.0000 40335.0000 40399.0000 40439.0000 40535.0000 40711.0000 40727.0000 40963.0000 41183.0000 41231.0000 41359.0000 41447.0000 41499.0000 41515.0000 41551.0000 41567.0000 41699.0000 41751.0000 41895.0000 41939.0000 41959.0000 42015.0000 42139.0000 42223.0000 42351.0000 42375.0000 42815.0000 42875.0000 42967.0000 43043.0000 43239.0000 43311.0000 43351.0000 43367.0000 43411.0000 43467.0000 43479.0000 43483.0000 43535.0000 43815.0000 43867.0000 43903.0000 43959.0000 44003.0000 44151.0000 44211.0000 44219.0000 44331.0000 44391.0000 44487.0000 44539.0000 44627.0000 45039.0000 45131.0000 45287.0000 45339.0000 45371.0000 45395.0000 45611.0000 45619.0000 45827.0000 45875.0000 45887.0000 45931.0000 46031.0000 46091.0000 46239.0000 46347.0000 46351.0000 46443.0000 46491.0000 46535.0000 46683.0000 46715.0000 46735.0000 46887.0000 50003.0000 58755.0000 57135.0000 64467.0000 65415.0000 60363.0000 59571.0000 58735.0000 66311.0000 66307.0000 58715.0000 64427.0000 63635.0000 64419.0000 65379.0000 66299.0000 67147.0000 61195.0000 57979.0000 63571.0000 61283.0000 61995.0000 66283.0000 50895.0000 66279.0000 65331.0000 60439.0000 59611.0000 57151.0000 57147.0000 59607.0000 55207.0000 64491.0000 46995.0000 47015.0000 47019.0000 47043.0000 47063.0000 47191.0000 47311.0000 47347.0000 47355.0000 47411.0000 47419.0000 47575.0000 47647.0000 47951.0000 48003.0000 48039.0000 48071.0000 48219.0000 48255.0000 48363.0000 48411.0000 48551.0000 48791.0000 48903.0000 48931.0000 49099.0000 49111.0000 49155.0000 49199.0000 49299.0000 49507.0000 49523.0000 49643.0000 49683.0000 49767.0000 49771.0000 49863.0000 49967.0000 50039.0000 50047.0000 50059.0000 50063.0000 50139.0000 50215.0000 50311.0000 50415.0000 50539.0000 50675.0000 50735.0000 50751.0000 50795.0000 50815.0000 51007.0000 51087.0000 51191.0000 51199.0000 51271.0000 51275.0000 51291.0000 51379.0000 51527.0000 51691.0000 51799.0000 51815.0000 51891.0000 52391.0000 52491.0000 52675.0000 52827.0000 52835.0000 52923.0000 52931.0000 52939.0000 52963.0000 52995.0000 53107.0000 53123.0000 53131.0000 53191.0000 53363.0000 53423.0000 53515.0000 53535.0000 53539.0000 53583.0000 53599.0000 53963.0000 54415.0000 54499.0000 54519.0000 54599.0000 54727.0000 54755.0000 54827.0000 54935.0000 55011.0000 55015.0000 55035.0000 55039.0000 55143.0000 55283.0000 55399.0000 55411.0000 55443.0000 55543.0000 55623.0000 55651.0000 55703.0000 56031.0000 56047.0000 56071.0000 56103.0000 56307.0000 56467.0000 56535.0000 56599.0000 56603.0000 56731.0000 56759.0000 56779.0000 56991.0000 57063.0000 57183.0000 57395.0000 57487.0000 57787.0000 57847.0000 57891.0000 58003.0000 58095.0000 58143.0000 58179.0000 58331.0000 58379.0000 58471.0000 58527.0000 58607.0000 58647.0000 58819.0000 58875.0000 58903.0000 59035.0000 59167.0000 59423.0000 59667.0000 59923.0000 59927.0000 59947.0000 60063.0000 60167.0000 60475.0000 60495.0000 60563.0000 60651.0000 60671.0000 60675.0000 61407.0000 61587.0000 61607.0000 61627.0000 61659.0000 61847.0000 61895.0000 61967.0000 62139.0000 62419.0000 62431.0000 62447.0000 62527.0000 62535.0000 62599.0000 62675.0000 62951.0000 63403.0000 63815.0000 63855.0000 63887.0000 63911.0000 63927.0000 63995.0000 64019.0000 64059.0000 64123.0000 64587.0000 64607.0000 64683.0000 64803.0000 64811.0000 64835.0000 64999.0000 65099.0000 65143.0000 65163.0000 65271.0000 65551.0000 65579.0000 65767.0000 65823.0000 65883.0000 65927.0000 65947.0000 65975.0000 65983.0000 66003.0000 66075.0000 66179.0000 66419.0000 66423.0000 66439.0000 66479.0000 66523.0000 66703.0000 66707.0000 66955.0000 67087.0000 67091.0000 81631.0000 82479.0000 73815.0000 72243.0000 83315.0000 73803.0000 84147.0000 80691.0000 72223.0000 82451.0000 80683.0000 86711.0000 74655.0000 72219.0000 74635.0000 78979.0000 81515.0000 71495.0000 79759.0000 72203.0000 77203.0000 69439.0000 83231.0000 73731.0000 83227.0000 70135.0000 76311.0000 84931.0000 72179.0000 69415.0000 69411.0000 71559.0000 75571.0000 80583.0000 84911.0000 67267.0000 67687.0000 67715.0000 67887.0000 68047.0000 68295.0000 68451.0000 68487.0000 68511.0000 68587.0000 68607.0000 68883.0000 68923.0000 69067.0000 69187.0000 69471.0000 69479.0000 69487.0000 69491.0000 69651.0000 69879.0000 69995.0000 70255.0000 70379.0000 70659.0000 70879.0000 70911.0000 70931.0000 71059.0000 71147.0000 71271.0000 71367.0000 71579.0000 71607.0000 71627.0000 71799.0000 71815.0000 71931.0000 71947.0000 71955.0000 72047.0000 72127.0000 72131.0000 72307.0000 72331.0000 72379.0000 72523.0000 72539.0000 72547.0000 72607.0000 72627.0000 72795.0000 73115.0000 73151.0000 73159.0000 73219.0000 73623.0000 73683.0000 73695.0000 73707.0000 73947.0000 73999.0000 74051.0000 74099.0000 74259.0000 74367.0000 74723.0000 74755.0000 74783.0000 74839.0000 74859.0000 74915.0000 74955.0000 75075.0000 75171.0000 75267.0000 75379.0000 75595.0000 75631.0000 75651.0000 75683.0000 75711.0000 75719.0000 75811.0000 75987.0000 76207.0000 76267.0000 76459.0000 76515.0000 76703.0000 76739.0000 76783.0000 76863.0000 76915.0000 76995.0000 77059.0000 77143.0000 77315.0000 77351.0000 77383.0000 77399.0000 77451.0000 77459.0000 77515.0000 77527.0000 77607.0000 77615.0000 77727.0000 77867.0000 77967.0000 78003.0000 78239.0000 78451.0000 78543.0000 78615.0000 78643.0000 78707.0000 78783.0000 78819.0000 78867.0000 79163.0000 79191.0000 79271.0000 79503.0000 79511.0000 79527.0000 79575.0000 79659.0000 79667.0000 79911.0000 79967.0000 79999.0000 80051.0000 80091.0000 80563.0000 80831.0000 80843.0000 81015.0000 81035.0000 81075.0000 81175.0000 81243.0000 81379.0000 81735.0000 81759.0000 81919.0000 81999.0000 82155.0000 82235.0000 82299.0000 82543.0000 82655.0000 82699.0000 82731.0000 82763.0000 82791.0000 82887.0000 83019.0000 83023.0000 83031.0000 83143.0000 83415.0000 83623.0000 83867.0000 83919.0000 83987.0000 84295.0000 84435.0000 84607.0000 84667.0000 84699.0000 84823.0000 85095.0000 85127.0000 85171.0000 85227.0000 85251.0000 85287.0000 85427.0000 85487.0000 85607.0000 85675.0000 85955.0000 85959.0000 86047.0000 86067.0000 86071.0000 86203.0000 86383.0000 97835.0000 91619.0000 93847.0000 88527.0000 91603.0000 103843.0000 88503.0000 90855.0000 99303.0000 103835.0000 98515.0000 91571.0000 90087.0000 93083.0000 105527.0000 93799.0000 95863.0000 90835.0000 105495.0000 93791.0000 97147.0000 91539.0000 88455.0000 99255.0000 107171.0000 101007.0000 99251.0000 95203.0000 97775.0000 92319.0000 94543.0000 100103.0000 105467.0000 90035.0000 99215.0000 106303.0000 99207.0000 107127.0000 101803.0000 100931.0000 106259.0000 100059.0000 97071.0000 101771.0000 97675.0000 100899.0000 102771.0000 90151.0000 99107.0000 93675.0000 97047.0000 87535.0000 101755.0000 101751.0000 104539.0000 107067.0000 100175.0000 107059.0000 106195.0000 107015.0000 107011.0000 100855.0000 102715.0000 90747.0000 100839.0000 106171.0000 94503.0000 95095.0000 101699.0000 99959.0000 106151.0000 90727.0000 92235.0000 88339.0000 93611.0000 100827.0000 99047.0000 106139.0000 98343.0000 97599.0000 95751.0000 101679.0000 106127.0000 100807.0000 96307.0000 101959.0000 102899.0000 93591.0000 101655.0000 106111.0000 99935.0000 101635.0000 104399.0000 103523.0000 99011.0000 99903.0000 101607.0000 101603.0000 103515.0000 102595.0000 103511.0000 105207.0000 86863.0000 86895.0000 86915.0000 86931.0000 86979.0000 86999.0000 87019.0000 87075.0000 87083.0000 87139.0000 87291.0000 87299.0000 87739.0000 87807.0000 87819.0000 87983.0000 88039.0000 88083.0000 88187.0000 88195.0000 88559.0000 88663.0000 88727.0000 88823.0000 88919.0000 89023.0000 89039.0000 89095.0000 89423.0000 89475.0000 89671.0000 89719.0000 89731.0000 89735.0000 89795.0000 90231.0000 90283.0000 90287.0000 90303.0000 90331.0000 90363.0000 90383.0000 90475.0000 90595.0000 90631.0000 90639.0000 90899.0000 90915.0000 90963.0000 91051.0000 91243.0000 91247.0000 91283.0000 91291.0000 91771.0000 91823.0000 91843.0000 91967.0000 91999.0000 92035.0000 92059.0000 92067.0000 92111.0000 92115.0000 92123.0000 92127.0000 92143.0000 92403.0000 92415.0000 92515.0000 92599.0000 92755.0000 93151.0000 93203.0000 93219.0000 93343.0000 93487.0000 93515.0000 93959.0000 93983.0000 94103.0000 94191.0000 94207.0000 94219.0000 94379.0000 94419.0000 94427.0000 94623.0000 94639.0000 94643.0000 94655.0000 94791.0000 95035.0000 95295.0000 95307.0000 95339.0000 95419.0000 95427.0000 95503.0000 95515.0000 95615.0000 95675.0000 95947.0000 96019.0000 96055.0000 96239.0000 96259.0000 96555.0000 96571.0000 96635.0000 96643.0000 96667.0000 96679.0000 96695.0000 96747.0000 96755.0000 96771.0000 96891.0000 97291.0000 97403.0000 97487.0000 97491.0000 97871.0000 97887.0000 97919.0000 97923.0000 97927.0000 97939.0000 98015.0000 98019.0000 98191.0000 98599.0000 98615.0000 98671.0000 98675.0000 98719.0000 98767.0000 98847.0000 98879.0000 98935.0000 98943.0000 98995.0000 99323.0000 99327.0000 99407.0000 99611.0000 99615.0000 99647.0000 100215.0000 100251.0000 100295.0000 100303.0000 100319.0000 100331.0000 100383.0000 100427.0000 100463.0000 100479.0000 100543.0000 100703.0000 100707.0000 100735.0000 101067.0000 101083.0000 101099.0000 101127.0000 101167.0000 101195.0000 101199.0000 101203.0000 101279.0000 101495.0000 101523.0000 101991.0000 102159.0000 102207.0000 102287.0000 102335.0000 102379.0000 102399.0000 102411.0000 102531.0000 102995.0000 103019.0000 103031.0000 103039.0000 103075.0000 103175.0000 103331.0000 103407.0000 103427.0000 103435.0000 103475.0000 103955.0000 103959.0000 104007.0000 104047.0000 104059.0000 104063.0000 104091.0000 104115.0000 104159.0000 104183.0000 104215.0000 104227.0000 104315.0000 104763.0000 104843.0000 104891.0000 104903.0000 104915.0000 104923.0000 104935.0000 104943.0000 104979.0000 105163.0000 105171.0000 105603.0000 105639.0000 105775.0000 105795.0000 105807.0000 105843.0000 105959.0000 105999.0000 106419.0000 106487.0000 106531.0000 106583.0000 106639.0000 106667.0000 106683.0000 106723.0000 106779.0000 106835.0000 106851.0000 126255.0000 120087.0000 115571.0000 124599.0000 124595.0000 125427.0000 117075.0000 118583.0000 110443.0000 117823.0000 121591.0000 121587.0000 113123.0000 120071.0000 121423.0000 125419.0000 116807.0000 118571.0000 125263.0000 117819.0000 126927.0000 119863.0000 109655.0000 116319.0000 122951.0000 117811.0000 113115.0000 117623.0000 117051.0000 121583.0000 120615.0000 118559.0000 114803.0000 123827.0000 123079.0000 108019.0000 123667.0000 117043.0000 120599.0000 125207.0000 111207.0000 109587.0000 119091.0000 112027.0000 111431.0000 108739.0000 122139.0000 126063.0000 110367.0000 109559.0000 126051.0000 112863.0000 116047.0000 108719.0000 108903.0000 115271.0000 116747.0000 119815.0000 121359.0000 113739.0000 126035.0000 124379.0000 119807.0000 126855.0000 123595.0000 110339.0000 108703.0000 119071.0000 126023.0000 111139.0000 112811.0000 111951.0000 112803.0000 118255.0000 109511.0000 117011.0000 111947.0000 122099.0000 120551.0000 108659.0000 109731.0000 123059.0000 111939.0000 111415.0000 112259.0000 113939.0000 124359.0000 116019.0000 125135.0000 111103.0000 111923.0000 111919.0000 111911.0000 116015.0000 112767.0000 111903.0000 112759.0000 107835.0000 125383.0000 112751.0000 120015.0000 124351.0000 116259.0000 126831.0000 118519.0000 122875.0000 121303.0000 116999.0000 107815.0000 120519.0000 126819.0000 125099.0000 111871.0000 125975.0000 120011.0000 119003.0000 126815.0000 111067.0000 114407.0000 123519.0000 118179.0000 124311.0000 114759.0000 118167.0000 116611.0000 116599.0000 110227.0000 115931.0000 117775.0000 124287.0000 125959.0000 115923.0000 114755.0000 115919.0000 125063.0000 119699.0000 116983.0000 120479.0000 114371.0000 121203.0000 115463.0000 120467.0000 112235.0000 115119.0000 125051.0000 121187.0000 120463.0000 108571.0000 127023.0000 111023.0000 118131.0000 113603.0000 110191.0000 124547.0000 116235.0000 121167.0000 118935.0000 119659.0000 123451.0000 112655.0000 122775.0000 117423.0000 118927.0000 119647.0000 116519.0000 117415.0000 118115.0000 112647.0000 121143.0000 121127.0000 124231.0000 123435.0000 118095.0000 109383.0000 111003.0000 122731.0000 124199.0000 119615.0000 109379.0000 118079.0000 118075.0000 126675.0000 118879.0000 114323.0000 118871.0000 118867.0000 123399.0000 124183.0000 124927.0000 124179.0000 118859.0000 112591.0000 109351.0000 112587.0000 122671.0000 115831.0000 121907.0000 118847.0000 118843.0000 110139.0000 114291.0000 110967.0000 112571.0000 122639.0000 118039.0000 111719.0000 126603.0000 112551.0000 115027.0000 120331.0000 122635.0000 118835.0000 124887.0000 109327.0000 111691.0000 114275.0000 114271.0000 121079.0000 125775.0000 125771.0000 125767.0000 111675.0000 119515.0000 118803.0000 118011.0000 122615.0000 126559.0000 125743.0000 120291.0000 125739.0000 124535.0000 126535.0000 118779.0000 124087.0000 120747.0000 119267.0000 120271.0000 125343.0000 121507.0000 108855.0000 119251.0000 109707.0000 122259.0000 118459.0000 116187.0000 119947.0000 113883.0000 118447.0000 114687.0000 113031.0000 123755.0000 117719.0000 115399.0000 108823.0000 116919.0000 118423.0000 109679.0000 122999.0000 118419.0000 124495.0000 116143.0000 126155.0000 123747.0000 119191.0000 112127.0000 119179.0000 107667.0000 126975.0000 116115.0000 112119.0000 111295.0000 122223.0000 116859.0000 121455.0000 123731.0000 119147.0000 125299.0000 107263.0000 107295.0000 107299.0000 107339.0000 107391.0000 107423.0000 107479.0000 107483.0000 107555.0000 107619.0000 108091.0000 108099.0000 108195.0000 108203.0000 108231.0000 108251.0000 108255.0000 108367.0000 108371.0000 108451.0000 108459.0000 108487.0000 109031.0000 109035.0000 109119.0000 109151.0000 109183.0000 109191.0000 109275.0000 109287.0000 109791.0000 109855.0000 109911.0000 109983.0000 110667.0000 110691.0000 110759.0000 110803.0000 110831.0000 110843.0000 110883.0000 110899.0000 110903.0000 111467.0000 111475.0000 111503.0000 111515.0000 111531.0000 111607.0000 111623.0000 111655.0000 112371.0000 112479.0000 113155.0000 113203.0000 113299.0000 113419.0000 113447.0000 113483.0000 113487.0000 114039.0000 114087.0000 114099.0000 114243.0000 114895.0000 114899.0000 114915.0000 114927.0000 114943.0000 114991.0000 115667.0000 115767.0000 116331.0000 116371.0000 116391.0000 116411.0000 116419.0000 117127.0000 117163.0000 117167.0000 117175.0000 117283.0000 117311.0000 117835.0000 117855.0000 117891.0000 117967.0000 118591.0000 118611.0000 118667.0000 118719.0000 118739.0000 119343.0000 119419.0000 119447.0000 120111.0000 120135.0000 120151.0000 120183.0000 120243.0000 120251.0000 120883.0000 120915.0000 121031.0000 121611.0000 121643.0000 121651.0000 121679.0000 121719.0000 121743.0000 122375.0000 122479.0000 122503.0000 122539.0000 123099.0000 123127.0000 123131.0000 123159.0000 123175.0000 123203.0000 123215.0000 123219.0000 123227.0000 123259.0000 123283.0000 123939.0000 124015.0000 124043.0000 124051.0000 124651.0000 124659.0000 124663.0000 124715.0000 124719.0000 124735.0000 124743.0000 124747.0000 124751.0000 124791.0000 124799.0000 124807.0000 124823.0000 125439.0000 125463.0000 125483.0000 125547.0000 125603.0000 125607.0000 125655.0000 125671.0000 125675.0000 126351.0000 126359.0000 126383.0000 126423.0000 126427.0000 126443.0000 126471.0000 126479.0000 140835.0000 137607.0000 127907.0000 137603.0000 146967.0000 139287.0000 132015.0000 136687.0000 134779.0000 145099.0000 134863.0000 127759.0000 135659.0000 142447.0000 134759.0000 140819.0000 129559.0000 145907.0000 133787.0000 130243.0000 132103.0000 137587.0000 146023.0000 127743.0000 134731.0000 136563.0000 127891.0000 139203.0000 133951.0000 132915.0000 130231.0000 128611.0000 135619.0000 133039.0000 128607.0000 131191.0000 131959.0000 134711.0000 139195.0000 128591.0000 130379.0000 146823.0000 130987.0000 144035.0000 130215.0000 127879.0000 130983.0000 135603.0000 145879.0000 130207.0000 135751.0000 130363.0000 130971.0000 130195.0000 128563.0000 127731.0000 135591.0000 141471.0000 129547.0000 136519.0000 136515.0000 140795.0000 132075.0000 133731.0000 136663.0000 129355.0000 143183.0000 128547.0000 136511.0000 134667.0000 134843.0000 136503.0000 131163.0000 146927.0000 139891.0000 137411.0000 142319.0000 133927.0000 142315.0000 129539.0000 146923.0000 145851.0000 128535.0000 142311.0000 133703.0000 130175.0000 129339.0000 137403.0000 146759.0000 129335.0000 129535.0000 130935.0000 144103.0000 128699.0000 138479.0000 140603.0000 135507.0000 145831.0000 136639.0000 131899.0000 129307.0000 128691.0000 134827.0000 131159.0000 136479.0000 131151.0000 128515.0000 129527.0000 145047.0000 144087.0000 132851.0000 143271.0000 138455.0000 142415.0000 131883.0000 138307.0000 135715.0000 145815.0000 129515.0000 133675.0000 131131.0000 143955.0000 135499.0000 127659.0000 142271.0000 138447.0000 146735.0000 130159.0000 127639.0000 143111.0000 130907.0000 145027.0000 146903.0000 143235.0000 134603.0000 145019.0000 139247.0000 130883.0000 140571.0000 145015.0000 127627.0000 131859.0000 136431.0000 143071.0000 131099