<?xml version="1.0"?>
<VTKFile type="RectilinearGrid" version="1.0" byte_order="LittleEndian" header_type="UInt64">
<RectilinearGrid WholeExtent="25 50 0 25 0 15">
<Piece Extent="25 50 0 25 0 15">
<Coordinates>
<DataArray type="Float64" Name="Array X-Axis" format="ascii" RangeMin="15.0" RangeMax="30.0">
15.0 15.6 16.2 16.8 17.4 18.0 18.6 19.2 19.8 20.4 21.0 21.6 22.2 22.8 23.4 24.0 24.6 25.2 25.8 26.4 27.0 27.6 28.2 28.8 29.4 30.0 
</DataArray>
<DataArray type="Float64" Name="Array Y-Axis" format="ascii" RangeMin="0.0" RangeMax="15.0">
0.0 0.6 1.2 1.8 2.4 3.0 3.6 4.2 4.8 5.4 6.0 6.6 7.2 7.8 8.4 9.0 9.6 10.2 10.8 11.4 12.0 12.6 13.2 13.8 14.4 15.0 
</DataArray>
<DataArray type="Float64" Name="Array Z-Axis" format="ascii" RangeMin="0.0" RangeMax="9.0">
0.0 0.6 1.2 1.8 2.4 3.0 3.6 4.2 4.8 5.4 6.0 6.6 7.2 7.8 8.4 9.0 
</DataArray>
</Coordinates>
<PointData>
<DataArray Name="TEMPERATURE" NumberOfComponents="1" type="Float64" format="ascii">
20.0 20.0 20.0 20.0 20.0 20.0 20.0 20.0 20.0 20.0 20.0 20.0 20.0 20.0 20.0 20.0 20.0 20.0 20.0 20.0 20.0 20.0 20.0 20.1 20.1 20.1 20.1 20.1 20.1 20.1 20.1 20.1 20.1 20.1 20.1 20.1 20.1 20.1 20.1 20.1 20.1 20.1 20.1 20.1 20.1 20.1 20.1 20.1 20.1 20.1 20.1 20.1 20.1 20.1 20.2 20.2 20.2 20.2 20.2 20.2 20.2 20.2 20.2 20.2 20.1 20.1 20.1 20.1 20.1 20.1 20.1 20.1 20.2 20.2 20.2 20.2 20.1 20.1 20.2 20.2 20.2 20.3 20.3 20.3 20.2 20.3 20.3 20.3 20.3 20.2 20.2 20.2 20.2 20.2 20.2 20.2 20.2 20.3 20.3 20.3 20.3 20.2 20.1 20.0 20.3 20.3 20.3 20.4 20.4 20.4 20.4 20.4 20.4 20.4 20.4 20.3 20.3 20.3 20.3 20.3 20.3 20.3 20.4 20.4 20.4 20.4 20.3 20.2 20.1 20.0 20.4 20.4 20.4 20.5 20.5 20.5 20.5 20.5 20.5 20.5 20.5 20.4 20.4 20.4 20.4 20.4 20.5 20.5 20.5 20.5 20.5 20.4 20.3 20.2 20.1 20.0 20.4 20.5 20.5 20.6 20.6 20.6 20.6 20.6 20.6 20.6 20.6 20.5 20.5 20.5 20.6 20.6 20.6 20.6 20.6 20.6 20.5 20.4 20.3 20.2 20.1 20.0 20.6 20.6 20.6 20.7 20.7 20.7 20.7 20.7 20.8 20.8 20.7 20.7 20.7 20.7 20.7 20.8 20.8 20.7 20.7 20.6 20.5 20.4 20.3 20.1 20.1 20.0 20.7 20.7 20.8 20.8 20.9 20.8 20.9 20.9 21.0 21.0 20.9 20.9 20.9 20.9 20.9 20.9 20.9 20.8 20.8 20.7 20.5 20.4 20.2 20.1 20.1 20.0 20.9 20.9 21.0 21.0 21.0 21.1 21.1 21.1 21.2 21.2 21.1 21.1 21.1 21.1 21.1 21.0 21.0 20.9 20.8 20.7 20.5 20.4 20.2 20.2 20.1 20.0 21.1 21.1 21.2 21.3 21.3 21.3 21.3 21.4 21.5 21.5 21.4 21.3 21.3 21.3 21.2 21.2 21.1 21.0 20.8 20.7 20.5 20.4 20.2 20.2 20.1 20.0 21.3 21.3 21.4 21.5 21.6 21.7 21.7 21.7 21.8 21.7 21.6 21.6 21.5 21.5 21.4 21.3 21.2 21.0 20.8 20.7 20.5 20.4 20.3 20.2 20.1 20.0 21.5 21.6 21.7 21.8 21.9 22.0 22.1 22.2 22.2 22.0 21.9 21.8 21.7 21.6 21.5 21.4 21.2 21.0 20.8 20.6 20.5 20.4 20.3 20.2 20.1 20.0 21.7 21.8 22.0 22.2 22.4 22.5 22.6 22.5 22.5 22.4 22.2 22.1 21.9 21.8 21.6 21.5 21.3 21.0 20.8 20.6 20.5 20.4 20.3 20.2 20.1 20.0 21.9 22.1 22.3 22.6 22.8 23.1 23.1 23.1 23.0 22.8 22.5 22.3 22.2 22.0 21.8 21.6 21.3 21.0 20.8 20.6 20.5 20.4 20.3 20.2 20.1 20.0 22.2 22.4 22.7 23.0 23.3 23.6 23.8 23.9 23.6 23.2 22.9 22.6 22.4 22.2 21.9 21.6 21.3 21.0 20.8 20.7 20.5 20.4 20.3 20.2 20.1 20.0 22.5 22.8 23.1 23.5 23.9 24.4 24.8 24.7 24.2 23.7 23.3 23.0 22.6 22.3 22.0 21.6 21.3 21.0 20.8 20.7 20.6 20.4 20.3 20.2 20.1 20.1 22.8 23.2 23.6 24.2 24.7 25.5 25.9 25.7 25.1 24.3 23.7 23.3 22.9 22.4 22.0 21.6 21.3 21.1 20.9 20.8 20.6 20.5 20.4 20.2 20.1 20.1 23.2 23.7 24.3 25.0 25.8 26.8 27.1 26.7 25.9 24.9 24.2 23.6 23.1 22.6 22.1 21.7 21.4 21.2 21.0 20.9 20.7 20.6 20.4 20.3 20.1 20.1 23.8 24.4 25.4 26.5 28.2 30.1 30.0 28.5 27.1 25.9 24.9 24.0 23.4 22.8 22.3 21.9 21.6 21.4 21.2 21.0 20.8 20.6 20.4 20.3 20.1 20.1 24.7 25.7 27.1 29.7 31.4 32.6 32.2 31.2 30.4 28.1 25.8 24.5 23.7 23.1 22.5 22.0 21.7 21.4 21.2 21.0 20.8 20.6 20.4 20.3 20.1 20.1 25.6 26.9 28.5 32.7 35.8 20.0 20.0 35.8 33.9 29.6 26.3 24.9 24.0 23.2 22.5 22.1 21.7 21.4 21.2 20.9 20.7 20.6 20.4 20.2 20.1 20.1 25.5 27.0 28.9 33.1 36.3 20.0 20.0 40.4 35.4 28.8 26.3 24.9 23.9 23.1 22.5 22.1 21.7 21.4 21.1 20.9 20.7 20.5 20.4 20.2 20.1 20.1 24.9 26.2 27.8 31.0 34.2 38.9 43.7 39.8 32.5 27.0 25.7 24.5 23.6 22.9 22.4 22.0 21.7 21.4 21.1 21.0 20.8 20.6 20.4 20.3 20.1 20.1 24.0 25.0 26.0 27.8 30.5 33.7 36.4 33.2 27.7 25.6 24.7 23.9 23.2 22.7 22.2 21.9 21.6 21.3 21.1 20.9 20.8 20.6 20.4 20.3 20.1 20.1 22.6 23.9 24.6 25.7 26.9 27.7 27.9 27.1 25.7 24.7 24.1 23.5 22.9 22.5 22.0 21.7 21.4 21.2 21.0 20.9 20.7 20.5 20.4 20.3 20.1 20.1 20.0 20.0 20.0 20.0 20.0 20.0 20.0 20.0 20.0 20.0 20.0 20.0 20.0 20.0 20.0 20.0 20.0 20.0 20.0 20.0 20.0 20.0 20.0 20.1 20.1 20.1 20.1 20.1 20.1 20.1 20.1 20.1 20.1 20.1 20.1 20.1 20.1 20.1 20.1 20.1 20.1 20.1 20.1 20.1 20.1 20.1 20.1 20.1 20.1 20.1 20.1 20.1 20.1 20.1 20.1 20.2 20.2 20.1 20.1 20.2 20.2 20.2 20.2 20.2 20.1 20.1 20.1 20.1 20.1 20.1 20.1 20.1 20.1 20.2 20.2 20.2 20.1 20.1 20.2 20.2 20.2 20.2 20.2 20.2 20.2 20.3 20.3 20.3 20.3 20.2 20.2 20.2 20.2 20.2 20.2 20.2 20.2 20.2 20.3 20.3 20.3 20.2 20.1 20.0 20.3 20.3 20.3 20.3 20.3 20.3 20.3 20.4 20.4 20.4 20.3 20.3 20.3 20.3 20.3 20.3 20.3 20.3 20.3 20.4 20.4 20.4 20.3 20.2 20.1 20.0 20.3 20.4 20.4 20.4 20.4 20.4 20.4 20.5 20.5 20.5 20.4 20.4 20.4 20.4 20.4 20.4 20.4 20.5 20.5 20.5 20.5 20.4 20.3 20.2 20.1 20.0 20.4 20.5 20.5 20.5 20.6 20.6 20.6 20.6 20.6 20.6 20.6 20.5 20.5 20.5 20.6 20.6 20.6 20.6 20.6 20.6 20.5 20.4 20.3 20.1 20.1 20.0 20.5 20.6 20.6 20.7 20.7 20.7 20.7 20.7 20.8 20.8 20.7 20.7 20.7 20.7 20.7 20.7 20.7 20.7 20.7 20.6 20.5 20.4 20.2 20.1 20.1 20.0 20.7 20.7 20.8 20.8 20.9 20.9 20.9 20.9 21.0 21.0 20.9 20.9 20.9 20.9 20.9 20.9 20.8 20.8 20.7 20.6 20.5 20.4 20.2 20.1 20.1 20.0 20.9 20.9 21.0 21.0 21.1 21.1 21.1 21.2 21.2 21.2 21.1 21.1 21.1 21.1 21.1 21.0 20.9 20.9 20.8 20.6 20.5 20.3 20.2 20.1 20.1 20.0 21.1 21.1 21.2 21.3 21.4 21.4 21.4 21.4 21.5 21.5 21.4 21.3 21.3 21.3 21.2 21.1 21.0 20.9 20.8 20.6 20.5 20.3 20.2 20.1 20.1 20.0 21.3 21.3 21.4 21.6 21.7 21.7 21.8 21.8 21.9 21.8 21.6 21.6 21.5 21.4 21.3 21.2 21.1 21.0 20.8 20.6 20.5 20.3 20.2 20.2 20.1 20.0 21.5 21.6 21.7 21.9 22.0 22.1 22.2 22.2 22.2 22.1 21.9 21.8 21.7 21.6 21.5 21.4 21.2 21.0 20.8 20.6 20.5 20.3 20.3 20.2 20.1 20.0 21.7 21.8 22.0 22.3 22.5 22.6 22.7 22.7 22.6 22.4 22.2 22.1 21.9 21.8 21.6 21.5 21.3 21.0 20.8 20.6 20.5 20.4 20.3 20.2 20.1 20.0 21.9 22.1 22.4 22.7 22.9 23.2 23.3 23.3 23.1 22.8 22.6 22.4 22.2 22.0 21.8 21.6 21.3 21.1 20.8 20.6 20.5 20.4 20.3 20.2 20.1 20.0 22.2 22.5 22.8 23.1 23.5 23.8 24.1 24.1 23.7 23.3 22.9 22.7 22.4 22.2 21.9 21.6 21.3 21.1 20.8 20.6 20.5 20.4 20.3 20.2 20.1 20.0 22.6 22.9 23.3 23.7 24.2 24.7 25.1 24.9 24.3 23.8 23.4 23.0 22.7 22.4 22.0 21.7 21.3 21.1 20.8 20.7 20.5 20.4 20.3 20.2 20.1 20.0 23.0 23.4 23.9 24.4 25.0 25.8 26.3 25.9 25.2 24.5 23.9 23.4 23.0 22.5 22.1 21.7 21.4 21.1 20.9 20.7 20.6 20.5 20.3 20.2 20.1 20.1 23.4 23.9 24.6 25.6 26.7 27.8 28.1 27.3 26.1 25.2 24.4 23.8 23.2 22.7 22.2 21.8 21.5 21.2 21.0 20.8 20.7 20.5 20.4 20.2 20.1 20.1 23.9 24.9 27.4 29.8 31.4 33.9 33.9 31.2 28.3 26.3 25.2 24.3 23.5 22.9 22.4 22.0 21.6 21.4 21.1 20.9 20.8 20.6 20.4 20.3 20.1 20.1 25.0 26.4 29.9 36.6 61.9 107.9 117.2 70.6 36.6 29.0 26.2 24.8 23.9 23.2 22.6 22.1 21.7 21.4 21.2 21.0 20.8 20.6 20.4 20.3 20.1 20.1 25.9 27.5 30.3 40.2 119.8 347.6 349.3 122.7 42.7 31.4 26.9 25.3 24.3 23.4 22.7 22.2 21.7 21.4 21.2 20.9 20.7 20.6 20.4 20.2 20.1 20.1 25.9 27.6 32.0 45.4 119.8 319.3 344.7 145.5 51.6 31.1 26.8 25.4 24.3 23.4 22.7 22.2 21.8 21.4 21.2 20.9 20.7 20.5 20.4 20.2 20.1 20.1 25.1 26.6 30.5 43.3 66.0 94.0 123.0 97.6 48.4 29.3 26.0 24.8 23.8 23.1 22.5 22.1 21.7 21.4 21.1 20.9 20.7 20.5 20.4 20.3 20.1 20.1 24.2 25.1 26.4 31.4 35.6 38.8 42.2 38.8 31.6 26.8 25.0 24.2 23.4 22.8 22.3 21.9 21.6 21.3 21.1 20.9 20.7 20.6 20.4 20.3 20.1 20.1 22.8 24.1 24.9 26.1 27.7 29.6 30.1 28.5 26.5 25.1 24.4 23.7 23.1 22.6 22.1 21.7 21.4 21.2 21.0 20.8 20.7 20.5 20.4 20.3 20.1 20.1 20.0 20.0 20.0 20.0 20.0 20.0 20.0 20.0 20.0 20.0 20.0 20.0 20.0 20.0 20.0 20.0 20.0 20.0 20.0 20.0 20.0 20.0 20.0 20.1 20.1 20.1 20.0 20.1 20.1 20.1 20.1 20.1 20.1 20.1 20.1 20.1 20.1 20.1 20.1 20.1 20.1 20.1 20.0 20.0 20.0 20.0 20.1 20.1 20.1 20.1 20.1 20.1 20.1 20.1 20.1 20.1 20.1 20.1 20.1 20.1 20.2 20.2 20.1 20.1 20.1 20.1 20.1 20.1 20.1 20.1 20.1 20.1 20.1 20.2 20.2 20.2 20.1 20.1 20.2 20.2 20.2 20.2 20.2 20.2 20.2 20.2 20.2 20.2 20.2 20.2 20.2 20.2 20.2 20.2 20.2 20.2 20.2 20.2 20.2 20.2 20.2 20.2 20.1 20.0 20.2 20.2 20.3 20.3 20.3 20.3 20.3 20.3 20.3 20.3 20.3 20.3 20.3 20.3 20.3 20.3 20.3 20.3 20.3 20.3 20.3 20.3 20.3 20.2 20.1 20.0 20.3 20.3 20.4 20.4 20.4 20.4 20.4 20.4 20.5 20.4 20.4 20.4 20.4 20.4 20.4 20.4 20.4 20.4 20.4 20.4 20.4 20.3 20.2 20.1 20.1 20.0 20.4 20.4 20.5 20.5 20.5 20.5 20.5 20.6 20.6 20.6 20.5 20.5 20.5 20.5 20.5 20.5 20.5 20.5 20.5 20.5 20.4 20.3 20.2 20.1 20.1 20.0 20.5 20.5 20.6 20.6 20.7 20.7 20.7 20.7 20.8 20.7 20.7 20.7 20.7 20.7 20.7 20.7 20.6 20.6 20.6 20.5 20.4 20.3 20.2 20.1 20.1 20.0 20.7 20.7 20.8 20.8 20.9 20.9 20.9 21.0 21.0 21.0 20.9 20.9 20.9 20.9 20.8 20.8 20.7 20.7 20.6 20.5 20.4 20.3 20.2 20.1 20.1 20.0 20.8 20.9 21.0 21.1 21.1 21.1 21.2 21.2 21.3 21.2 21.1 21.1 21.0 21.0 21.0 20.9 20.8 20.8 20.7 20.6 20.4 20.3 20.2 20.1 20.1 20.0 21.0 21.1 21.2 21.3 21.4 21.5 21.5 21.6 21.6 21.5 21.4 21.3 21.2 21.2 21.1 21.0 20.9 20.8 20.7 20.6 20.4 20.3 20.2 20.1 20.1 20.0 21.2 21.3 21.5 21.6 21.8 21.8 21.9 22.0 21.9 21.8 21.6 21.5 21.5 21.4 21.3 21.1 21.0 20.9 20.8 20.6 20.5 20.3 20.2 20.1 20.1 20.0 21.5 21.6 21.8 22.0 22.2 22.3 22.4 22.4 22.3 22.1 21.9 21.8 21.7 21.5 21.4 21.3 21.1 21.0 20.8 20.6 20.5 20.3 20.2 20.1 20.1 20.0 21.7 21.9 22.1 22.4 22.7 22.9 23.0 22.9 22.7 22.5 22.3 22.1 21.9 21.8 21.6 21.4 21.2 21.0 20.8 20.6 20.5 20.3 20.2 20.2 20.1 20.0 22.0 22.2 22.5 22.8 23.2 23.5 23.7 23.6 23.2 22.9 22.7 22.4 22.2 22.0 21.8 21.5 21.3 21.1 20.8 20.6 20.5 20.3 20.2 20.2 20.1 20.0 22.3 22.7 23.0 23.4 23.9 24.3 24.7 24.4 23.9 23.4 23.1 22.8 22.5 22.2 21.9 21.7 21.4 21.1 20.8 20.6 20.5 20.4 20.3 20.2 20.1 20.0 22.7 23.1 23.6 24.2 24.8 25.6 25.9 25.4 24.6 24.1 23.6 23.2 22.8 22.5 22.1 21.7 21.4 21.1 20.9 20.7 20.5 20.4 20.3 20.2 20.1 20.0 23.2 23.8 24.4 25.3 26.2 27.5 27.8 26.6 25.5 24.8 24.2 23.7 23.1 22.7 22.2 21.8 21.5 21.2 20.9 20.7 20.6 20.4 20.3 20.2 20.1 20.0 23.7 24.6 25.6 27.4 29.8 32.1 33.0 30.6 27.3 25.7 24.9 24.2 23.5 22.9 22.4 21.9 21.6 21.3 21.0 20.8 20.6 20.5 20.4 20.2 20.1 20.1 24.3 25.8 30.2 36.4 44.1 51.9 52.5 44.7 33.8 27.4 25.8 24.7 23.9 23.2 22.6 22.1 21.7 21.4 21.1 20.9 20.7 20.5 20.4 20.2 20.1 20.1 25.4 28.3 35.5 55.6 113.3 182.0 189.7 118.0 49.0 30.5 27.0 25.6 24.4 23.6 22.9 22.3 21.8 21.5 21.2 20.9 20.7 20.6 20.4 20.2 20.1 20.1 26.4 30.1 37.0 70.6 206.5 380.9 387.4 212.0 68.9 34.5 28.1 26.3 24.9 23.9 23.0 22.4 21.9 21.5 21.2 20.9 20.7 20.5 20.4 20.2 20.1 20.1 26.6 30.0 38.0 75.6 211.7 377.3 408.9 282.4 126.1 48.6 29.0 26.3 25.0 23.9 23.0 22.4 21.9 21.5 21.2 20.9 20.7 20.5 20.4 20.2 20.1 20.1 25.7 28.3 35.0 63.2 123.7 190.2 235.2 221.2 134.0 53.2 28.2 25.6 24.5 23.5 22.8 22.2 21.8 21.4 21.1 20.9 20.7 20.5 20.4 20.2 20.1 20.1 24.6 25.9 28.4 39.3 51.8 71.6 89.1 89.5 67.7 36.7 26.1 24.7 23.8 23.1 22.5 22.0 21.7 21.3 21.1 20.9 20.7 20.5 20.4 20.2 20.1 20.1 23.0 24.6 25.4 27.9 32.7 40.5 46.0 43.2 33.4 26.3 24.9 24.1 23.4 22.8 22.3 21.9 21.5 21.2 21.0 20.8 20.6 20.5 20.4 20.2 20.1 20.1 20.0 20.0 20.0 20.0 20.0 20.0 20.0 20.0 20.0 20.0 20.0 20.0 20.0 20.0 20.0 20.0 20.0 20.0 20.0 20.0 20.0 20.0 20.0 20.0 20.1 20.1 20.0 20.1 20.1 20.1 20.1 20.1 20.1 20.1 20.1 20.1 20.1 20.1 20.1 20.1 20.0 20.0 20.0 20.0 20.0 20.0 20.1 20.1 20.1 20.1 20.1 20.1 20.1 20.1 20.1 20.1 20.1 20.1 20.1 20.1 20.2 20.2 20.1 20.1 20.1 20.1 20.1 20.1 20.1 20.1 20.1 20.1 20.1 20.1 20.2 20.1 20.1 20.0 20.2 20.2 20.2 20.2 20.2 20.2 20.2 20.2 20.3 20.2 20.2 20.2 20.2 20.2 20.2 20.2 20.2 20.2 20.2 20.2 20.2 20.2 20.2 20.2 20.1 20.0 20.2 20.3 20.3 20.3 20.3 20.3 20.3 20.3 20.4 20.3 20.3 20.3 20.3 20.3 20.3 20.3 20.3 20.3 20.3 20.3 20.3 20.3 20.2 20.1 20.1 20.0 20.3 20.3 20.4 20.4 20.4 20.4 20.4 20.5 20.5 20.5 20.4 20.4 20.4 20.4 20.4 20.4 20.4 20.4 20.4 20.4 20.3 20.3 20.2 20.1 20.1 20.0 20.4 20.4 20.5 20.5 20.6 20.6 20.6 20.6 20.6 20.6 20.6 20.5 20.5 20.5 20.5 20.5 20.5 20.5 20.5 20.4 20.4 20.3 20.2 20.1 20.1 20.0 20.5 20.6 20.6 20.7 20.7 20.7 20.8 20.8 20.8 20.8 20.8 20.7 20.7 20.7 20.7 20.6 20.6 20.6 20.5 20.5 20.4 20.3 20.2 20.1 20.0 20.0 20.7 20.7 20.8 20.9 21.0 21.0 21.0 21.0 21.1 21.0 21.0 20.9 20.9 20.8 20.8 20.8 20.7 20.6 20.6 20.5 20.4 20.3 20.2 20.1 20.1 20.0 20.9 20.9 21.0 21.1 21.2 21.2 21.3 21.3 21.3 21.3 21.2 21.1 21.0 21.0 20.9 20.9 20.8 20.7 20.6 20.5 20.4 20.3 20.2 20.1 20.1 20.0 21.1 21.1 21.3 21.4 21.5 21.6 21.7 21.7 21.7 21.5 21.4 21.3 21.2 21.2 21.1 21.0 20.9 20.8 20.7 20.6 20.4 20.3 20.2 20.1 20.1 20.0 21.3 21.4 21.5 21.7 21.9 21.9 22.1 22.1 22.0 21.8 21.7 21.6 21.4 21.3 21.2 21.1 21.0 20.9 20.7 20.6 20.5 20.3 20.2 20.1 20.1 20.0 21.5 21.6 21.8 22.1 22.3 22.4 22.5 22.5 22.4 22.2 22.0 21.8 21.7 21.5 21.4 21.3 21.1 21.0 20.8 20.6 20.5 20.3 20.2 20.1 20.1 20.0 21.7 21.9 22.2 22.5 22.8 23.0 23.1 23.1 22.9 22.6 22.3 22.1 22.0 21.8 21.6 21.4 21.2 21.0 20.8 20.7 20.5 20.3 20.2 20.2 20.1 20.0 22.0 22.3 22.6 23.0 23.3 23.6 23.9 23.8 23.4 23.0 22.8 22.5 22.3 22.0 21.8 21.6 21.3 21.1 20.9 20.7 20.5 20.4 20.2 20.2 20.1 20.0 22.4 22.8 23.2 23.7 24.1 24.5 24.9 24.7 24.1 23.6 23.3 22.9 22.6 22.3 22.0 21.7 21.4 21.1 20.9 20.7 20.5 20.4 20.3 20.2 20.1 20.0 22.8 23.4 24.1 24.8 25.5 26.7 26.9 25.9 25.0 24.3 23.8 23.4 22.9 22.5 22.2 21.8 21.5 21.2 20.9 20.7 20.5 20.4 20.3 20.2 20.1 20.0 23.4 24.2 25.6 26.9 27.6 29.6 30.3 27.9 26.0 25.2 24.5 23.9 23.3 22.8 22.4 22.0 21.6 21.3 21.0 20.8 20.6 20.4 20.3 20.2 20.1 20.0 24.1 26.5 31.1 33.5 33.3 35.6 37.6 33.9 28.7 26.5 25.3 24.5 23.7 23.1 22.6 22.1 21.7 21.4 21.1 20.8 20.7 20.5 20.4 20.2 20.1 20.1 26.1 32.7 45.0 55.7 60.5 66.6 69.5 60.4 43.6 30.9 26.5 25.2 24.2 23.5 22.9 22.3 21.9 21.5 21.2 20.9 20.7 20.6 20.4 20.3 20.1 20.1 29.1 43.4 67.8 107.9 163.4 211.8 218.5 143.0 59.6 34.3 28.0 26.2 24.8 23.9 23.2 22.6 22.0 21.6 21.3 21.0 20.8 20.6 20.4 20.2 20.1 20.1 29.9 45.2 80.4 159.7 289.2 389.2 395.9 247.5 86.3 42.2 29.4 27.1 25.5 24.4 23.4 22.7 22.1 21.6 21.3 21.0 20.7 20.6 20.4 20.2 20.1 20.1 29.0 36.7 64.6 142.8 291.4 418.5 446.6 351.8 195.5 83.0 33.6 27.2 25.6 24.4 23.4 22.7 22.1 21.6 21.2 21.0 20.7 20.5 20.4 20.2 20.1 20.1 27.4 30.4 41.2 78.8 157.0 247.5 314.7 326.7 226.6 89.6 32.9 26.4 25.0 23.9 23.1 22.5 22.0 21.6 21.2 21.0 20.8 20.6 20.4 20.2 20.1 20.1 25.4 26.8 29.8 40.7 57.2 91.0 146.6 172.3 116.0 46.1 27.3 25.2 24.2 23.4 22.8 22.2 21.8 21.4 21.1 20.9 20.7 20.5 20.4 20.2 20.1 20.1 23.3 25.0 26.1 30.1 38.9 54.1 70.4 67.7 43.7 27.4 25.4 24.5 23.7 23.1 22.5 22.0 21.7 21.3 21.0 20.8 20.6 20.5 20.4 20.2 20.1 20.1 20.0 20.0 20.0 20.0 20.0 20.0 20.0 20.0 20.0 20.0 20.0 20.0 20.0 20.0 20.0 20.0 20.0 20.0 20.0 20.0 20.0 20.0 20.0 20.1 20.1 20.1 20.1 20.1 20.1 20.1 20.1 20.1 20.1 20.1 20.1 20.1 20.1 20.1 20.1 20.1 20.1 20.1 20.1 20.1 20.1 20.1 20.1 20.1 20.1 20.1 20.1 20.1 20.1 20.1 20.2 20.2 20.2 20.2 20.2 20.2 20.2 20.2 20.2 20.1 20.1 20.1 20.1 20.1 20.1 20.1 20.1 20.1 20.1 20.2 20.2 20.2 20.1 20.1 20.2 20.2 20.2 20.3 20.3 20.2 20.2 20.3 20.3 20.3 20.3 20.2 20.2 20.2 20.2 20.2 20.2 20.2 20.2 20.2 20.2 20.2 20.2 20.2 20.1 20.0 20.3 20.3 20.3 20.4 20.4 20.3 20.3 20.4 20.4 20.4 20.4 20.3 20.3 20.3 20.3 20.3 20.3 20.3 20.3 20.3 20.3 20.3 20.2 20.2 20.1 20.0 20.4 20.4 20.4 20.5 20.5 20.5 20.5 20.5 20.5 20.5 20.5 20.5 20.5 20.5 20.5 20.5 20.4 20.4 20.4 20.4 20.4 20.3 20.2 20.1 20.1 20.0 20.5 20.5 20.6 20.6 20.6 20.6 20.6 20.7 20.7 20.7 20.7 20.6 20.6 20.6 20.6 20.6 20.6 20.5 20.5 20.4 20.4 20.3 20.2 20.1 20.1 20.0 20.6 20.7 20.7 20.8 20.8 20.8 20.9 20.9 20.9 20.9 20.9 20.8 20.8 20.8 20.7 20.7 20.7 20.6 20.6 20.5 20.4 20.3 20.2 20.1 20.1 20.0 20.8 20.8 20.9 21.0 21.1 21.1 21.1 21.2 21.2 21.1 21.1 21.0 21.0 20.9 20.9 20.8 20.8 20.7 20.6 20.5 20.5 20.3 20.2 20.1 20.1 20.0 21.0 21.0 21.1 21.3 21.3 21.4 21.4 21.5 21.5 21.4 21.3 21.2 21.2 21.1 21.0 20.9 20.9 20.8 20.7 20.6 20.5 20.4 20.2 20.1 20.1 20.0 21.1 21.2 21.4 21.5 21.6 21.7 21.8 21.9 21.8 21.7 21.5 21.4 21.3 21.3 21.2 21.1 21.0 20.9 20.8 20.6 20.5 20.4 20.2 20.1 20.1 20.0 21.3 21.5 21.6 21.8 21.9 22.0 22.2 22.2 22.1 21.9 21.8 21.7 21.6 21.4 21.3 21.2 21.1 21.0 20.8 20.7 20.5 20.4 20.3 20.2 20.1 20.0 21.6 21.7 21.9 22.1 22.3 22.5 22.6 22.7 22.5 22.3 22.1 22.0 21.8 21.7 21.5 21.4 21.2 21.0 20.9 20.7 20.6 20.4 20.3 20.2 20.1 20.0 21.8 22.0 22.3 22.5 22.8 23.0 23.2 23.2 23.0 22.7 22.5 22.3 22.1 21.9 21.7 21.5 21.3 21.1 20.9 20.8 20.6 20.4 20.3 20.2 20.1 20.0 22.1 22.4 22.7 23.0 23.3 23.5 23.8 23.9 23.5 23.2 22.9 22.6 22.4 22.1 21.9 21.7 21.4 21.2 21.0 20.8 20.6 20.4 20.3 20.2 20.1 20.0 22.5 23.0 23.4 23.7 24.0 24.4 24.7 24.7 24.3 23.8 23.4 23.1 22.7 22.4 22.1 21.8 21.6 21.3 21.0 20.8 20.6 20.4 20.3 20.2 20.1 20.0 22.9 23.9 24.8 25.2 25.6 26.8 26.9 25.9 25.2 24.5 24.0 23.5 23.1 22.7 22.3 22.0 21.7 21.4 21.1 20.8 20.6 20.4 20.3 20.2 20.1 20.0 23.7 27.3 29.5 28.3 26.9 28.6 30.6 28.4 26.3 25.4 24.7 24.1 23.5 23.0 22.5 22.1 21.8 21.4 21.1 20.9 20.7 20.5 20.4 20.2 20.1 20.1 25.5 38.4 46.0 39.0 31.2 31.5 36.3 33.4 29.2 26.9 25.6 24.7 23.9 23.3 22.8 22.3 21.9 21.6 21.3 21.0 20.8 20.6 20.4 20.3 20.1 20.1 31.5 58.6 81.7 78.7 57.0 51.9 62.8 60.6 49.6 34.3 26.9 25.5 24.5 23.7 23.1 22.5 22.1 21.7 21.4 21.1 20.8 20.6 20.5 20.3 20.1 20.1 36.2 78.6 134.7 167.4 141.7 146.9 187.4 133.7 63.6 38.4 28.5 26.6 25.2 24.2 23.5 22.8 22.3 21.8 21.4 21.1 20.8 20.6 20.4 20.3 20.1 20.1 34.4 76.6 163.5 253.3 241.6 251.8 312.3 206.9 82.8 47.9 30.1 27.5 25.9 24.7 23.8 23.0 22.4 21.9 21.4 21.1 20.8 20.6 20.4 20.3 20.1 20.1 32.2 54.8 117.3 209.5 230.1 287.7 373.8 307.6 198.8 99.0 35.3 27.7 26.0 24.8 23.8 23.0 22.4 21.9 21.4 21.1 20.8 20.6 20.4 20.3 20.1 20.1 30.0 37.1 53.0 88.6 116.0 189.0 304.4 322.5 224.5 97.2 34.3 26.8 25.3 24.2 23.4 22.7 22.2 21.8 21.4 21.1 20.8 20.6 20.4 20.3 20.1 20.1 27.0 29.0 31.0 36.9 49.3 76.5 147.2 177.4 106.0 42.2 27.7 25.6 24.5 23.7 23.0 22.5 22.0 21.6 21.3 21.0 20.8 20.6 20.4 20.3 20.1 20.1 24.4 26.3 27.1 31.1 39.1 51.8 66.4 63.5 41.2 27.4 25.8 24.8 24.0 23.3 22.8 22.3 21.9 21.5 21.2 21.0 20.7 20.6 20.4 20.3 20.1 20.1 20.0 20.0 20.0 20.0 20.0 20.0 20.0 20.0 20.0 20.0 20.0 20.0 20.0 20.0 20.0 20.0 20.0 20.0 20.0 20.0 20.0 20.0 20.0 20.1 20.1 20.1 20.1 20.1 20.1 20.1 20.1 20.1 20.1 20.1 20.1 20.1 20.1 20.1 20.1 20.1 20.1 20.1 20.1 20.1 20.1 20.1 20.1 20.1 20.1 20.1 20.1 20.1 20.1 20.2 20.2 20.2 20.2 20.2 20.2 20.2 20.2 20.2 20.2 20.2 20.2 20.1 20.1 20.1 20.2 20.2 20.2 20.2 20.2 20.2 20.2 20.2 20.1 20.1 20.2 20.2 20.3 20.3 20.3 20.3 20.3 20.3 20.3 20.3 20.3 20.3 20.2 20.2 20.3 20.3 20.3 20.3 20.3 20.3 20.3 20.3 20.3 20.2 20.1 20.0 20.3 20.3 20.4 20.4 20.4 20.4 20.4 20.4 20.4 20.5 20.4 20.4 20.4 20.4 20.4 20.4 20.4 20.4 20.4 20.4 20.4 20.3 20.3 20.2 20.1 20.0 20.4 20.4 20.5 20.5 20.5 20.5 20.5 20.6 20.6 20.6 20.6 20.6 20.5 20.5 20.5 20.5 20.5 20.5 20.5 20.5 20.4 20.4 20.3 20.2 20.1 20.0 20.5 20.6 20.6 20.7 20.7 20.7 20.7 20.8 20.8 20.8 20.8 20.7 20.7 20.7 20.7 20.7 20.7 20.6 20.6 20.5 20.5 20.4 20.3 20.2 20.1 20.0 20.7 20.8 20.8 20.9 20.9 20.9 21.0 21.0 21.1 21.1 21.0 20.9 20.9 20.9 20.9 20.8 20.8 20.7 20.6 20.6 20.5 20.4 20.3 20.2 20.1 20.0 20.9 20.9 21.0 21.1 21.2 21.2 21.2 21.3 21.3 21.3 21.2 21.2 21.1 21.1 21.0 20.9 20.9 20.8 20.7 20.6 20.5 20.4 20.3 20.2 20.1 20.0 21.0 21.1 21.3 21.4 21.4 21.5 21.6 21.6 21.6 21.5 21.4 21.4 21.3 21.2 21.2 21.1 21.0 20.9 20.8 20.7 20.6 20.4 20.3 20.2 20.1 20.0 21.2 21.4 21.5 21.6 21.7 21.8 21.9 22.0 21.9 21.8 21.7 21.6 21.5 21.4 21.3 21.2 21.1 21.0 20.9 20.8 20.6 20.5 20.3 20.2 20.1 20.0 21.4 21.6 21.7 21.9 22.0 22.1 22.3 22.3 22.3 22.1 22.0 21.8 21.7 21.6 21.5 21.4 21.2 21.1 21.0 20.8 20.6 20.5 20.3 20.2 20.1 20.0 21.6 21.8 22.0 22.2 22.3 22.6 22.7 22.8 22.6 22.4 22.3 22.1 22.0 21.8 21.7 21.5 21.4 21.2 21.0 20.9 20.7 20.5 20.3 20.2 20.1 20.0 21.9 22.1 22.3 22.5 22.7 22.9 23.2 23.3 23.1 22.8 22.6 22.4 22.3 22.1 21.9 21.7 21.5 21.3 21.1 20.9 20.7 20.5 20.3 20.2 20.1 20.0 22.1 22.4 22.7 23.0 23.2 23.5 23.8 23.9 23.6 23.3 23.1 22.8 22.6 22.3 22.1 21.9 21.6 21.4 21.2 20.9 20.7 20.5 20.3 20.2 20.1 20.0 22.5 23.0 23.4 23.6 23.9 24.2 24.5 24.6 24.4 23.9 23.5 23.2 22.9 22.6 22.3 22.0 21.7 21.5 21.2 21.0 20.7 20.5 20.3 20.2 20.1 20.1 23.0 24.2 25.1 25.2 25.3 25.8 26.1 25.7 25.2 24.6 24.1 23.7 23.2 22.9 22.5 22.2 21.9 21.6 21.3 21.0 20.7 20.5 20.4 20.2 20.1 20.1 24.3 29.1 31.1 27.4 25.5 27.2 28.6 27.4 26.2 25.4 24.8 24.2 23.7 23.2 22.7 22.4 22.0 21.6 21.3 21.0 20.8 20.6 20.4 20.3 20.1 20.1 31.3 51.7 54.9 35.9 26.6 28.9 32.2 30.9 28.8 26.9 25.6 24.9 24.1 23.5 23.0 22.5 22.1 21.8 21.4 21.1 20.9 20.7 20.5 20.3 20.2 20.1 48.7 96.6 111.4 72.6 38.7 39.4 47.4 51.4 47.8 33.7 26.8 25.7 24.7 23.9 23.3 22.8 22.3 21.9 21.6 21.2 21.0 20.7 20.5 20.3 20.2 20.1 59.6 131.0 186.5 147.4 78.5 92.9 128.1 102.5 61.3 38.0 28.3 26.8 25.5 24.4 23.7 23.1 22.5 22.0 21.6 21.2 20.9 20.7 20.5 20.3 20.1 20.1 55.6 131.3 228.3 212.6 131.0 165.6 225.1 161.4 77.8 44.7 30.2 27.8 26.2 24.9 24.0 23.3 22.6 22.1 21.6 21.2 20.9 20.7 20.5 20.3 20.1 20.1 50.2 99.7 164.5 167.3 143.4 224.3 303.6 261.2 175.0 85.4 33.0 27.8 26.2 24.9 24.0 23.2 22.6 22.1 21.6 21.2 20.9 20.7 20.5 20.3 20.1 20.1 42.8 59.9 68.9 72.2 93.1 170.2 262.7 257.0 171.9 81.2 31.5 26.8 25.4 24.3 23.6 23.0 22.4 22.0 21.6 21.2 20.9 20.7 20.5 20.3 20.1 20.1 35.8 39.2 37.0 38.6 47.1 66.7 114.8 116.2 64.4 36.4 27.3 25.7 24.7 23.9 23.2 22.7 22.3 21.9 21.5 21.2 20.9 20.7 20.5 20.3 20.1 20.1 31.0 33.6 31.4 32.9 36.1 39.2 44.2 41.7 32.5 27.3 25.9 25.0 24.3 23.6 23.1 22.6 22.1 21.7 21.4 21.1 20.9 20.6 20.5 20.3 20.1 20.1 20.0 20.0 20.0 20.0 20.0 20.0 20.0 20.0 20.0 20.1 20.0 20.0 20.0 20.0 20.0 20.0 20.0 20.0 20.0 20.0 20.0 20.0 20.1 20.1 20.1 20.1 20.1 20.1 20.1 20.1 20.1 20.1 20.1 20.1 20.1 20.1 20.1 20.1 20.1 20.1 20.1 20.1 20.1 20.1 20.1 20.1 20.1 20.1 20.1 20.1 20.1 20.1 20.1 20.2 20.2 20.2 20.2 20.2 20.2 20.2 20.2 20.2 20.2 20.2 20.2 20.2 20.2 20.2 20.2 20.2 20.2 20.2 20.2 20.2 20.3 20.2 20.2 20.1 20.2 20.2 20.3 20.3 20.3 20.3 20.3 20.3 20.3 20.3 20.3 20.3 20.3 20.3 20.3 20.3 20.3 20.3 20.3 20.3 20.3 20.3 20.3 20.3 20.1 20.1 20.3 20.3 20.4 20.4 20.4 20.4 20.4 20.4 20.5 20.5 20.5 20.5 20.4 20.4 20.5 20.5 20.5 20.5 20.5 20.5 20.4 20.4 20.3 20.2 20.1 20.1 20.4 20.5 20.5 20.5 20.5 20.5 20.5 20.6 20.7 20.7 20.7 20.6 20.6 20.6 20.6 20.6 20.6 20.6 20.6 20.6 20.5 20.5 20.4 20.2 20.1 20.0 20.6 20.6 20.7 20.7 20.7 20.7 20.8 20.8 20.9 20.9 20.9 20.8 20.8 20.8 20.8 20.8 20.8 20.7 20.7 20.6 20.6 20.5 20.4 20.2 20.1 20.0 20.7 20.8 20.9 20.9 21.0 21.0 21.0 21.1 21.2 21.2 21.1 21.1 21.0 21.0 21.0 20.9 20.9 20.8 20.8 20.7 20.6 20.5 20.4 20.2 20.1 20.0 20.9 21.0 21.1 21.2 21.2 21.3 21.3 21.4 21.5 21.4 21.3 21.3 21.2 21.2 21.1 21.1 21.0 20.9 20.8 20.8 20.7 20.5 20.4 20.2 20.1 20.0 21.1 21.2 21.3 21.4 21.5 21.5 21.7 21.8 21.8 21.7 21.5 21.5 21.4 21.4 21.3 21.2 21.1 21.0 20.9 20.8 20.7 20.5 20.4 20.2 20.1 20.0 21.3 21.4 21.6 21.7 21.8 21.9 22.0 22.1 22.1 21.9 21.8 21.7 21.6 21.5 21.4 21.3 21.2 21.1 21.0 20.9 20.7 20.6 20.4 20.2 20.1 20.1 21.4 21.6 21.8 21.9 22.1 22.2 22.4 22.4 22.4 22.2 22.0 21.9 21.8 21.7 21.6 21.5 21.4 21.2 21.1 21.0 20.8 20.6 20.4 20.2 20.1 20.1 21.6 21.8 22.1 22.2 22.4 22.6 22.8 22.9 22.7 22.5 22.3 22.2 22.1 21.9 21.8 21.6 21.5 21.4 21.2 21.0 20.8 20.6 20.4 20.2 20.1 20.1 21.9 22.1 22.4 22.5 22.7 22.9 23.2 23.3 23.1 22.9 22.7 22.5 22.4 22.2 22.0 21.8 21.6 21.5 21.3 21.0 20.8 20.6 20.4 20.2 20.1 20.1 22.1 22.4 22.7 23.0 23.2 23.5 23.7 23.8 23.7 23.4 23.1 22.9 22.7 22.4 22.2 22.0 21.8 21.6 21.3 21.1 20.8 20.6 20.4 20.2 20.1 20.1 22.6 23.0 23.4 23.6 23.8 24.1 24.5 24.6 24.4 23.9 23.6 23.3 23.0 22.7 22.4 22.2 21.9 21.7 21.4 21.1 20.8 20.6 20.4 20.2 20.1 20.1 23.3 24.1 24.8 25.0 25.0 25.4 25.8 25.7 25.2 24.6 24.2 23.7 23.4 23.0 22.7 22.3 22.0 21.7 21.4 21.1 20.9 20.6 20.4 20.3 20.1 20.1 24.9 28.1 28.0 25.4 25.9 27.2 27.2 26.8 26.0 25.3 24.8 24.3 23.8 23.3 22.9 22.5 22.2 21.8 21.5 21.2 20.9 20.6 20.5 20.3 20.1 20.1 39.1 56.0 47.8 28.2 27.1 29.6 29.2 28.9 28.0 26.5 25.5 24.9 24.3 23.7 23.2 22.7 22.3 22.0 21.6 21.3 21.0 20.7 20.5 20.3 20.2 20.1 74.1 122.5 98.6 43.0 32.2 37.3 37.1 41.9 40.1 30.4 26.5 25.6 24.8 24.1 23.5 23.0 22.5 22.1 21.7 21.4 21.0 20.8 20.5 20.4 20.2 20.1 100.0 175.9 156.8 70.8 52.7 73.1 78.3 75.8 54.9 34.7 27.9 26.7 25.6 24.6 23.9 23.3 22.7 22.2 21.8 21.4 21.0 20.7 20.5 20.3 20.2 20.1 104.5 185.9 186.2 107.8 113.9 161.7 169.3 137.6 75.4 39.6 29.8 27.8 26.3 25.1 24.2 23.5 22.9 22.3 21.8 21.4 21.0 20.7 20.5 20.3 20.1 20.1 96.1 146.6 138.7 110.2 176.4 247.8 256.4 224.4 138.1 59.0 31.0 27.8 26.2 25.0 24.1 23.4 22.9 22.3 21.8 21.3 21.0 20.7 20.5 20.3 20.1 20.1 71.2 84.4 68.4 70.7 125.9 182.0 207.1 188.2 121.7 56.1 29.2 26.6 25.5 24.5 23.7 23.2 22.7 22.2 21.7 21.3 21.0 20.7 20.5 20.3 20.2 20.1 53.6 52.7 45.7 44.7 48.0 63.4 83.8 71.8 46.2 32.8 26.9 25.7 24.8 24.1 23.4 22.9 22.5 22.1 21.7 21.3 21.0 20.7 20.5 20.3 20.2 20.1 46.1 50.7 43.3 40.4 37.2 33.7 35.0 34.2 30.6 27.4 25.9 25.0 24.3 23.7 23.2 22.7 22.3 21.9 21.6 21.3 21.0 20.7 20.5 20.3 20.2 20.1 20.0 20.0 20.0 20.0 20.0 20.0 20.0 20.0 20.1 20.1 20.1 20.0 20.0 20.0 20.0 20.0 20.0 20.0 20.0 20.0 20.1 20.1 20.1 20.1 20.1 20.1 20.1 20.1 20.1 20.1 20.1 20.1 20.1 20.1 20.1 20.1 20.1 20.1 20.1 20.1 20.1 20.1 20.1 20.1 20.1 20.1 20.1 20.1 20.2 20.2 20.2 20.1 20.2 20.2 20.2 20.2 20.2 20.2 20.2 20.2 20.2 20.2 20.2 20.2 20.2 20.2 20.2 20.2 20.2 20.2 20.2 20.3 20.3 20.3 20.3 20.3 20.2 20.1 20.2 20.2 20.3 20.3 20.3 20.3 20.3 20.3 20.3 20.4 20.3 20.3 20.3 20.3 20.3 20.4 20.4 20.4 20.4 20.4 20.4 20.4 20.4 20.3 20.2 20.1 20.3 20.3 20.4 20.4 20.4 20.4 20.4 20.4 20.5 20.5 20.5 20.5 20.5 20.5 20.5 20.6 20.6 20.6 20.6 20.5 20.5 20.5 20.4 20.3 20.1 20.1 20.4 20.5 20.5 20.5 20.5 20.5 20.6 20.6 20.7 20.8 20.7 20.7 20.7 20.7 20.7 20.7 20.7 20.7 20.7 20.6 20.6 20.5 20.4 20.3 20.1 20.1 20.6 20.6 20.7 20.7 20.8 20.8 20.8 20.9 21.0 21.0 21.0 20.9 20.9 20.9 20.9 20.9 20.8 20.8 20.8 20.7 20.6 20.6 20.4 20.3 20.1 20.1 20.8 20.8 20.9 21.0 21.0 21.0 21.1 21.2 21.3 21.3 21.2 21.1 21.1 21.1 21.0 21.0 21.0 20.9 20.8 20.8 20.7 20.6 20.4 20.3 20.1 20.1 20.9 21.0 21.1 21.2 21.2 21.3 21.4 21.5 21.6 21.5 21.4 21.3 21.3 21.2 21.2 21.1 21.1 21.0 20.9 20.8 20.7 20.6 20.4 20.3 20.1 20.1 21.1 21.2 21.4 21.4 21.5 21.6 21.7 21.8 21.8 21.7 21.6 21.5 21.4 21.4 21.3 21.2 21.2 21.1 21.0 20.9 20.8 20.6 20.4 20.3 20.1 20.1 21.3 21.4 21.6 21.7 21.8 21.9 22.0 22.1 22.1 21.9 21.8 21.7 21.6 21.5 21.5 21.4 21.3 21.2 21.1 21.0 20.8 20.6 20.4 20.3 20.1 20.1 21.4 21.6 21.8 21.9 22.1 22.2 22.4 22.5 22.4 22.2 22.0 21.9 21.8 21.7 21.6 21.5 21.4 21.3 21.2 21.1 20.9 20.7 20.4 20.3 20.1 20.1 21.6 21.8 22.0 22.2 22.3 22.6 22.8 22.9 22.7 22.5 22.3 22.2 22.1 21.9 21.8 21.7 21.6 21.4 21.3 21.1 20.9 20.7 20.4 20.3 20.1 20.1 21.8 22.1 22.3 22.5 22.7 22.9 23.2 23.3 23.1 22.8 22.7 22.5 22.3 22.2 22.0 21.8 21.7 21.5 21.4 21.2 20.9 20.7 20.4 20.3 20.1 20.1 22.1 22.4 22.7 22.9 23.2 23.4 23.7 23.8 23.6 23.3 23.1 22.9 22.6 22.4 22.2 22.0 21.8 21.6 21.4 21.2 20.9 20.7 20.4 20.3 20.1 20.1 22.9 23.0 23.3 23.5 23.8 24.2 24.6 24.6 24.3 23.9 23.6 23.3 23.0 22.7 22.4 22.2 22.0 21.7 21.5 21.2 20.9 20.7 20.4 20.3 20.1 20.1 24.2 24.3 24.6 24.8 24.8 25.3 25.8 25.6 25.1 24.6 24.1 23.7 23.4 23.0 22.7 22.4 22.1 21.8 21.5 21.3 21.0 20.7 20.4 20.3 20.1 20.1 25.7 27.5 26.5 25.5 26.2 26.2 26.6 26.7 26.0 25.2 24.7 24.2 23.8 23.3 22.9 22.6 22.3 21.9 21.6 21.3 21.0 20.7 20.5 20.3 20.1 20.1 39.2 47.8 36.2 26.1 27.9 27.5 27.9 28.7 27.7 26.1 25.4 24.7 24.2 23.7 23.2 22.8 22.5 22.1 21.8 21.4 21.1 20.8 20.5 20.3 20.2 20.1 81.8 103.9 60.3 29.0 31.7 31.1 33.0 37.6 34.9 28.3 26.4 25.4 24.8 24.2 23.6 23.1 22.7 22.3 21.9 21.5 21.1 20.8 20.5 20.4 20.2 20.1 119.4 160.8 93.7 39.9 43.9 43.5 54.8 65.6 52.2 33.1 28.0 26.4 25.6 24.7 23.9 23.4 22.9 22.4 21.9 21.5 21.1 20.8 20.5 20.3 20.2 20.1 132.3 179.9 123.6 89.4 109.1 114.6 137.7 130.1 78.6 39.9 30.9 27.6 26.3 25.1 24.2 23.6 23.0 22.5 21.9 21.5 21.1 20.7 20.5 20.3 20.1 20.1 125.2 151.9 125.5 144.4 186.5 200.3 217.4 194.8 115.2 46.2 31.8 27.7 26.3 25.1 24.2 23.5 23.0 22.5 22.0 21.5 21.1 20.7 20.5 20.3 20.1 20.1 91.9 94.6 85.6 109.3 136.6 158.8 165.2 145.9 98.1 42.2 29.7 26.6 25.6 24.7 23.9 23.3 22.8 22.4 21.9 21.5 21.1 20.8 20.5 20.3 20.2 20.1 69.8 60.3 54.0 54.2 53.0 65.7 68.3 56.9 47.0 32.3 27.5 25.7 24.9 24.2 23.6 23.0 22.6 22.2 21.8 21.4 21.1 20.8 20.5 20.3 20.2 20.1 60.6 68.2 60.5 52.8 41.5 34.1 33.7 33.3 31.3 27.6 26.0 25.0 24.3 23.7 23.2 22.8 22.4 22.1 21.7 21.4 21.0 20.8 20.5 20.3 20.2 20.1 20.0 20.0 20.0 20.0 20.0 20.0 20.0 20.0 20.1 20.1 20.1 20.1 20.0 20.0 20.0 20.0 20.0 20.1 20.1 20.1 20.1 20.1 20.1 20.1 20.1 20.2 20.1 20.1 20.1 20.1 20.1 20.1 20.1 20.1 20.1 20.1 20.1 20.1 20.1 20.1 20.1 20.1 20.1 20.1 20.1 20.1 20.1 20.2 20.2 20.2 20.2 20.1 20.2 20.2 20.2 20.2 20.2 20.2 20.2 20.2 20.2 20.2 20.2 20.2 20.2 20.2 20.2 20.2 20.2 20.3 20.3 20.3 20.3 20.3 20.3 20.3 20.2 20.1 20.2 20.2 20.3 20.3 20.3 20.3 20.3 20.3 20.3 20.4 20.4 20.4 20.3 20.4 20.4 20.4 20.4 20.5 20.5 20.5 20.5 20.5 20.4 20.4 20.2 20.1 20.3 20.3 20.4 20.4 20.4 20.4 20.4 20.5 20.5 20.6 20.6 20.6 20.5 20.5 20.6 20.6 20.6 20.6 20.6 20.6 20.6 20.5 20.5 20.3 20.2 20.1 20.5 20.5 20.5 20.5 20.6 20.6 20.6 20.7 20.8 20.8 20.8 20.8 20.7 20.7 20.8 20.8 20.8 20.7 20.7 20.7 20.6 20.6 20.5 20.3 20.1 20.1 20.6 20.7 20.7 20.7 20.8 20.8 20.8 21.0 21.0 21.1 21.0 21.0 20.9 20.9 20.9 20.9 20.9 20.8 20.8 20.7 20.7 20.6 20.5 20.3 20.1 20.1 20.8 20.8 20.9 21.0 21.0 21.0 21.1 21.3 21.3 21.3 21.2 21.1 21.1 21.1 21.0 21.0 20.9 20.9 20.8 20.8 20.7 20.6 20.5 20.3 20.1 20.1 20.9 21.0 21.1 21.2 21.2 21.3 21.5 21.6 21.6 21.5 21.4 21.3 21.2 21.2 21.2 21.1 21.0 21.0 20.9 20.9 20.8 20.7 20.5 20.3 20.1 20.1 21.1 21.2 21.3 21.4 21.5 21.6 21.7 21.8 21.8 21.7 21.5 21.4 21.4 21.3 21.3 21.2 21.1 21.1 21.0 20.9 20.8 20.7 20.5 20.3 20.1 20.1 21.3 21.4 21.6 21.6 21.7 21.9 22.1 22.1 22.1 21.9 21.7 21.6 21.6 21.5 21.4 21.3 21.2 21.2 21.1 21.0 20.9 20.7 20.5 20.3 20.1 20.1 21.4 21.6 21.8 21.9 22.0 22.2 22.4 22.5 22.4 22.1 22.0 21.8 21.8 21.7 21.6 21.5 21.4 21.3 21.2 21.1 20.9 20.7 20.5 20.3 20.1 20.1 21.6 21.8 22.0 22.1 22.3 22.5 22.7 22.8 22.7 22.4 22.2 22.1 22.0 21.9 21.7 21.6 21.5 21.4 21.3 21.1 20.9 20.7 20.5 20.3 20.1 20.1 21.8 22.1 22.3 22.4 22.6 22.9 23.1 23.3 23.1 22.8 22.6 22.4 22.2 22.1 21.9 21.8 21.6 21.5 21.4 21.2 21.0 20.7 20.5 20.3 20.1 20.1 22.1 22.4 22.7 22.