<?xml version="1.0"?>
<VTKFile type="PolyData" version="1.0" byte_order="LittleEndian" header_type="UInt64">
<PolyData>
<Piece NumberOfPoints="4234" NumberOfVerts="0" NumberOfLines="0" NumberOfPolys="0">
    <Points>
        <DataArray type="Float32" NumberOfComponents="3" format="ascii">
        16.3065 9.9442 2.0773 16.2403 12.6644 0.6719 15.6777 10.4581 6.4204 15.5128 8.9135 3.7228 15.9334 11.6455 0.9670 16.0253 12.0789 0.7342 15.8403 9.3145 3.9252 15.6815 10.1528 1.4356 16.5859 11.1122 0.5467 16.6197 2.5520 5.6442 15.3906 6.0058 2.0270 20.0957 5.7952 3.4358 16.5419 9.0052 3.2993 16.6068 9.4540 2.4462 19.0909 10.4200 8.3940 19.2394 10.7906 8.3940 16.5836 9.3168 2.7488 17.5627 11.4197 0.2012 17.3238 9.2315 3.0159 18.8854 14.7427 8.3940 19.2154 14.7639 8.3940 19.2614 14.6235 8.3940 17.9839 9.7424 8.3940 16.4066 4.6844 5.0537 19.7240 13.1203 8.3940 18.8591 14.6753 8.3940 17.3068 8.4201 5.3001 18.2759 9.5262 2.9607 18.4815 8.4714 2.7574 17.9519 9.4850 8.3940 18.5764 7.9341 3.4799 19.8307 12.5703 8.3940 19.5697 14.2603 8.3940 19.9056 12.4599 8.3940 19.8385 13.4914 8.3940 19.8456 13.4858 8.3940 19.6219 11.6873 8.3940 18.9132 10.3378 8.3940 19.8972 3.7268 4.8534 18.9111 9.8080 4.9736 15.1146 8.5583 2.9305 18.4832 10.0685 8.3940 16.7366 9.5500 8.3940 16.9532 9.4492 8.3940 17.9784 9.6728 4.6539 15.3282 9.9065 8.3940 19.4025 14.3363 8.3940 17.4801 7.2461 5.6257 15.2547 10.0506 2.9645 17.7416 9.4525 8.3940 15.4598 9.6368 8.3940 15.3281 9.6209 8.3940 19.4027 10.8813 8.3940 16.4330 9.3474 8.3940 18.8203 10.1872 8.3940 17.7903 9.6053 8.3940 18.7804 10.6095 8.3940 19.8847 12.4355 8.3940 17.9622 9.6498 8.3940 15.7994 9.7994 8.3940 19.3167 11.3150 8.3940 15.7795 10.0409 1.5604 19.5064 13.2338 8.3940 16.0943 9.4046 8.3940 16.5608 9.4212 8.3940 19.2066 10.8375 8.3940 15.6057 11.1363 1.0849 19.1886 10.8933 8.3940 16.1972 10.0000 3.9387 15.7070 10.9261 0.9172 19.4467 13.8660 8.3940 19.7205 13.0496 8.3940 15.5211 9.9973 8.3940 17.5770 9.6859 8.3940 19.2946 11.1957 8.3940 19.0467 10.7454 8.3940 15.6259 13.1127 1.4663 18.8099 10.6155 2.3879 15.0815 12.1543 1.6562 15.0382 7.9778 4.1981 16.5742 3.4193 3.4765 18.8781 10.4023 8.3940 19.7348 12.0839 8.3940 19.7022 12.9005 8.3940 18.5939 10.1107 8.3940 15.1814 12.1049 1.5774 15.3942 10.5426 1.1635 16.9307 9.8224 8.3940 17.3185 9.5100 8.3940 19.4042 12.4134 8.3940 19.1645 13.9264 8.3940 19.3577 13.4792 8.3940 15.5407 10.6511 1.1540 19.4053 12.3910 8.3940 15.3347 10.0594 8.3940 15.8138 11.6491 0.5731 18.6319 14.4584 8.3940 19.2816 11.6567 8.3940 19.1906 14.2784 8.3940 17.9952 10.0992 8.3940 15.3094 8.7791 2.7683 18.9315 11.0568 8.3940 19.3358 11.3990 8.3940 16.5069 9.6555 8.3940 15.1396 10.2601 8.3940 19.3868 12.2655 8.3940 19.0925 14.0443 8.3940 15.1910 9.8947 8.3940 19.6070 12.6309 8.3940 19.6497 12.2057 8.3940 17.6499 9.7485 8.3940 17.5814 9.7061 8.3940 17.7548 10.0675 8.3940 19.2382 11.7626 8.3940 19.0203 10.8647 8.3940 15.5037 10.1411 0.5664 19.3623 12.2860 8.3940 15.5917 9.7339 8.3940 19.0300 10.8081 8.3940 18.4723 14.3971 8.3940 19.1453 13.4820 8.3940 16.1409 9.6618 8.3940 15.3071 14.7960 8.3940 18.8657 14.3902 8.3940 18.6883 14.4360 8.3940 19.3288 12.5392 8.3940 18.7157 10.8724 8.3940 19.5731 12.0009 8.3940 16.7686 9.7579 8.3940 19.4383 11.5512 8.3940 18.9154 14.4592 8.3940 19.2320 12.2377 8.3940 19.3788 13.5416 8.3940 19.3608 12.3060 8.3940 16.8730 9.6097 8.3940 19.3691 13.6850 8.3940 19.2039 13.5853 8.3940 19.0581 11.2173 8.3940 15.9645 9.7505 8.3940 18.8838 14.0864 8.3940 19.3841 12.2865 8.3940 18.1612 10.2371 8.3940 18.2423 10.3293 8.3940 18.4584 14.8230 8.3940 19.1430 11.1226 8.3940 16.2510 4.2031 3.9156 16.7296 9.8962 8.3940 16.7739 9.0348 5.0353 19.2216 13.7756 8.3940 15.7115 10.1215 8.3940 18.9777 14.3265 8.3940 18.9470 11.0519 8.3940 18.9250 14.0577 8.3940 18.7259 10.9376 8.3940 16.7848 8.9651 3.0500 16.4367 10.0228 8.3940 17.6734 14.7456 8.3940 19.2107 13.0402 8.3940 19.1638 12.6305 8.3940 18.0087 10.3767 8.3940 15.1444 10.1070 8.3940 19.1091 11.7969 8.3940 15.7666 9.9840 8.3940 18.1374 10.4072 8.3940 19.1029 12.0939 8.3940 19.4394 12.5428 8.3940 19.0853 13.1366 8.3940 18.9637 13.8173 8.3940 18.7368 13.7668 8.3940 19.2331 12.3746 8.3940 19.2451 13.1740 8.3940 19.0483 13.4316 8.3940 18.7784 14.0033 8.3940 18.5900 14.2886 8.3940 15.9482 10.0145 8.3940 16.2240 10.1143 8.3940 18.6477 14.5508 8.3940 19.2035 12.4938 8.3940 16.7566 9.9293 8.3940 18.6605 10.7780 8.3940 17.4407 9.9401 2.3827 19.3133 11.7980 8.3940 19.3283 11.7498 8.3940 18.1960 10.2837 8.3940 15.2164 14.6454 8.3940 18.9436 11.2172 8.3940 18.6408 14.2688 8.3940 18.1868 10.2358 8.3940 17.4015 10.0507 8.3940 15.9298 9.9711 8.3940 19.0496 14.1744 8.3940 16.4258 5.0074 2.1380 18.4807 14.3839 8.3940 15.1986 10.4007 8.3940 18.7719 11.0223 8.3940 19.1971 11.2818 8.3940 17.2010 9.7930 1.6842 17.7983 9.9105 8.3940 15.2435 10.3004 8.3940 18.7911 10.9974 8.3940 19.4516 12.2513 8.3940 19.1838 11.5744 8.3940 18.7614 14.2835 8.3940 18.3802 10.6875 8.3940 19.2236 12.6480 8.3940 18.6415 10.8577 8.3940 19.4142 12.4117 8.3940 15.4835 9.8987 8.3940 16.5621 10.0361 8.3940 18.2593 14.7964 8.3940 19.1680 11.9966 8.3940 17.4184 9.8760 2.0611 17.4310 10.0346 8.3940 19.1692 12.3404 8.3940 17.3016 9.8228 8.3940 18.8990 13.7618 8.3940 18.4184 10.8238 8.3940 19.1848 12.3404 8.3940 18.1674 14.4869 8.3940 19.2010 11.7491 8.3940 15.3708 10.2483 8.3940 17.5266 10.2978 8.3940 18.9826 13.8647 8.3940 17.7713 14.6645 8.3940 15.6187 10.0779 8.3940 15.4641 10.3772 8.3940 18.7597 14.1247 8.3940 18.6800 13.8867 8.3940 17.3162 9.4906 3.2410 17.1519 10.1024 8.3940 18.5974 10.8019 8.3940 18.1666 14.8123 8.3940 17.4095 10.1010 0.9995 15.8674 7.8231 5.4066 16.4414 7.4171 1.2160 17.2184 9.0801 2.5162 15.8062 9.3794 0.9215 18.7206 10.4542 2.4865 17.4323 9.2390 4.4732 15.6151 14.7255 8.3940 18.4573 10.6436 8.3940 18.5104 14.1299 8.3940 18.4151 14.1126 8.3940 15.1440 14.7272 8.3940 18.4213 10.5816 8.3940 15.3180 14.5232 8.3940 19.1438 12.7594 8.3940 17.5928 5.4526 4.3184 18.8535 10.3219 2.3536 15.7466 10.3655 8.3940 19.1214 12.2834 8.3940 17.5541 7.9704 1.2287 19.0107 13.4710 8.3940 18.1112 14.4111 8.3940 17.7643 10.0000 2.9670 15.7273 10.0424 8.3940 18.2998 10.4561 8.3940 19.0209 13.5696 8.3940 16.3779 5.5285 3.8604 19.2078 12.5237 8.3940 15.2115 14.5862 8.3940 18.7141 11.3955 8.3940 18.5406 11.3180 8.3940 18.7999 13.9960 8.3940 18.3319 14.1113 8.3940 19.0096 11.3134 8.3940 19.3372 12.3153 8.3940 16.8044 8.9450 1.8601 16.5108 10.0658 8.3940 17.9728 10.7826 8.3940 18.2916 10.7727 8.3940 19.0790 11.6473 8.3940 18.8205 13.5740 8.3940 17.1158 10.3298 8.3940 16.5380 10.0694 8.3940 18.6590 11.3248 8.3940 18.3672 14.1045 8.3940 15.9748 10.2498 8.3940 18.5302 14.2841 8.3940 18.8065 11.7725 8.3940 17.6084 10.5432 8.3940 18.2271 14.7370 8.3940 19.0722 13.4097 8.3940 16.5023 10.1052 8.3940 18.3700 14.0900 8.3940 16.8885 9.9758 8.3940 19.1456 12.7385 8.3940 17.3416 14.6803 8.3940 16.0940 10.3515 8.3940 18.8868 13.7232 8.3940 15.8752 10.1751 8.3940 19.0121 11.4611 8.3940 16.5568 10.2991 8.3940 18.3338 14.2918 8.3940 16.5378 10.2607 8.3940 18.2267 10.4441 8.3940 19.1967 12.5303 8.3940 15.8443 10.3725 8.3940 19.0320 13.3589 8.3940 17.4983 5.9110 2.8503 18.3690 10.8642 8.3940 19.1035 13.6459 8.3940 15.9574 10.0095 8.3940 18.3209 10.8822 8.3940 18.7983 13.8756 8.3940 18.8980 11.5763 8.3940 18.4292 10.4923 8.3940 19.1066 12.3435 8.3940 17.6628 10.1932 8.3940 16.9321 10.0938 8.3940 17.0760 7.6577 1.7990 19.1007 13.0997 8.3940 16.0231 9.9997 8.3940 18.9177 12.0309 8.3940 19.2507 13.0680 8.3940 18.7037 14.2373 8.3940 17.4583 9.6609 2.3026 16.6938 10.0129 8.3940 17.4674 10.3157 8.3940 16.3435 9.8892 8.3940 15.3487 14.6820 8.3940 17.8820 10.5310 8.3940 17.3391 10.3056 8.3940 18.8892 11.8973 8.3940 16.5429 10.2623 8.3940 18.5387 14.2595 8.3940 17.9108 10.6177 8.3940 18.6222 13.9441 8.3940 18.9549 11.8414 8.3940 18.7911 13.7019 8.3940 18.4362 14.4852 8.3940 15.2399 14.6316 8.3940 18.6577 13.9789 8.3940 18.9912 11.5713 8.3940 16.7064 9.9677 8.3940 16.8355 10.2659 8.3940 16.1884 10.1843 8.3940 18.8228 11.4984 8.3940 18.4429 14.2130 8.3940 18.5335 13.7242 8.3940 19.2318 13.0162 8.3940 15.8008 10.3939 8.3940 17.1756 10.1070 8.3940 15.6576 10.1913 8.3940 15.8453 5.4101 1.7662 19.1893 12.5770 8.3940 17.3220 14.7635 8.3940 18.9597 11.4749 8.3940 15.9750 10.2478 8.3940 18.8092 13.4370 8.3940 18.7295 13.7731 8.3940 19.2453 12.3030 8.3940 18.6703 11.3123 8.3940 18.1663 10.8101 8.3940 16.6753 10.0125 8.3940 19.1341 12.5316 8.3940 15.2770 6.0394 5.6019 18.2076 14.5973 8.3940 19.0273 12.0965 8.3940 17.1095 14.7385 8.3940 17.0797 10.2058 8.3940 16.4261 10.1096 8.3940 18.8328 12.8589 8.3940 15.2594 10.7903 8.3940 17.6885 10.2304 8.3940 18.7317 12.5807 8.3940 19.0285 12.3641 8.3940 18.8085 13.9248 8.3940 16.6217 14.7301 8.3940 18.5821 13.9943 8.3940 18.9142 12.6463 8.3940 18.3573 14.1234 8.3940 17.7878 10.3417 8.3940 15.5739 14.4601 8.3940 18.6144 11.5956 8.3940 17.3876 10.4612 8.3940 18.0950 14.6461 8.3940 18.0585 14.6936 8.3940 15.0500 6.6067 1.3669 18.1031 7.2251 2.0365 17.9345 6.0907 2.7042 18.8550 11.6313 8.3940 18.1363 14.3049 8.3940 18.1733 10.7885 8.3940 18.6168 11.7777 8.3940 15.8171 10.4666 8.3940 17.3240 10.4967 8.3940 15.2632 14.6082 8.3940 15.2622 10.5763 8.3940 18.9962 12.7491 8.3940 18.0476 14.2174 8.3940 18.3189 14.1688 8.3940 17.3605 10.3052 8.3940 16.3903 10.0910 8.3940 16.6125 14.7144 8.3940 17.5726 10.3745 8.3940 16.9325 14.7424 8.3940 19.0257 13.0930 8.3940 16.2562 10.1456 8.3940 15.5272 10.6843 8.3940 16.6180 10.2067 8.3940 17.4085 10.3424 8.3940 16.0033 10.4355 8.3940 15.4585 10.2954 8.3940 15.9170 14.6004 8.3940 18.4648 10.3742 2.7423 17.2909 14.6335 8.3940 15.3012 10.4736 8.3940 17.1850 10.4354 8.3940 19.0121 12.7298 8.3940 19.0990 12.8420 8.3940 17.1366 10.4629 8.3940 18.7827 12.9220 8.3940 17.1532 14.7867 8.3940 18.1237 14.2388 8.3940 18.5248 10.4243 2.6823 15.2287 11.0542 8.3940 15.5822 14.6919 8.3940 19.0394 12.1635 8.3940 18.9055 13.1103 8.3940 15.2349 10.6183 8.3940 18.8406 12.3790 8.3940 15.4777 14.2908 8.3940 16.9696 10.0349 8.3940 17.4920 10.2034 8.3940 16.6185
[...]
    <PointData>
        <DataArray type="Float32" Name="tag" format="ascii">
            10611.0000 12211.0000 12631.0000 14587.0000 15139.0000 28435.0000 30607.0000 33571.0000 33583.0000 39383.0000 39535.0000 66299.0000 47311.0000 48039.0000 48363.0000 50039.0000 50047.0000 50311.0000 50735.0000 53515.0000 53535.0000 53539.0000 55283.0000 56307.0000 57183.0000 58003.0000 58471.0000 59927.0000 60495.0000 60563.0000 62419.0000 62951.0000 63815.0000 63927.0000 64587.0000 65551.0000 66439.0000 66479.0000 66523.0000 72203.0000 86623.0000 67267.0000 69479.0000 69491.0000 69651.0000 70879.0000 70911.0000 72047.0000 72379.0000 73115.0000 74755.0000 74783.0000 74839.0000 75595.0000 75631.0000 75651.0000 75683.0000 75719.0000 77315.0000 77351.0000 77451.0000 77663.0000 79911.0000 79999.0000 80831.0000 81759.0000 82583.0000 83415.0000 84667.0000 84863.0000 85127.0000 85171.0000 85227.0000 85959.0000 86047.0000 86067.0000 91603.0000 99303.0000 89335.0000 92939.0000 102899.0000 86895.0000 86915.0000 86999.0000 87807.0000 87995.0000 89155.0000 89475.0000 90231.0000 90363.0000 90915.0000 90963.0000 91279.0000 91823.0000 91843.0000 92131.0000 92415.0000 93203.0000 93219.0000 93343.0000 93455.0000 93983.0000 94103.0000 94623.0000 94655.0000 95307.0000 95419.0000 96643.0000 97871.0000 97887.0000 97919.0000 97923.0000 97939.0000 98015.0000 98019.0000 98559.0000 100295.0000 100303.0000 100319.0000 100331.0000 100383.0000 101083.0000 101099.0000 101127.0000 101167.0000 101279.0000 101991.0000 102159.0000 102287.0000 102335.0000 103039.0000 103075.0000 104007.0000 104159.0000 104183.0000 104903.0000 104923.0000 104979.0000 105639.0000 105775.0000 106419.0000 106487.0000 106531.0000 106667.0000 106683.0000 106723.0000 120615.0000 116047.0000 119071.0000 112803.0000 111103.0000 120519.0000 123519.0000 124311.0000 118167.0000 115931.0000 124287.0000 119699.0000 114371.0000 120467.0000 113603.0000 110191.0000 123451.0000 112655.0000 117423.0000 119647.0000 116519.0000 121143.0000 124231.0000 119615.0000 114323.0000 118859.0000 112591.0000 112587.0000 115831.0000 118847.0000 114291.0000 118039.0000 126603.0000 118835.0000 109327.0000 118011.0000 122615.0000 125743.0000 120291.0000 107295.0000 107391.0000 107483.0000 108099.0000 108195.0000 108231.0000 108459.0000 109035.0000 109791.0000 109983.0000 110759.0000 110803.0000 110831.0000 110899.0000 110903.0000 111475.0000 111515.0000 111623.0000 111655.0000 113155.0000 113419.0000 113447.0000 114915.0000 114943.0000 116331.0000 117167.0000 117855.0000 118591.0000 120111.0000 120251.0000 121031.0000 121611.0000 121651.0000 122539.0000 123099.0000 123203.0000 123219.0000 123227.0000 123939.0000 124043.0000 124659.0000 124799.0000 124823.0000 125439.0000 125547.0000 126351.0000 126383.0000 126443.0000 126479.0000 140835.0000 136687.0000 142447.0000 136563.0000 130987.0000 135507.0000 129239.0000 129223.0000 130079.0000 129175.0000 140543.0000 129151.0000 129147.0000 130015.0000 132699.0000 128347.0000 128339.0000 135331.0000 136319.0000 134455.0000 132687.0000 134423.0000 134395.0000 141259.0000 137295.0000 143831.0000 140455.0000 146619.0000 146611.0000 129943.0000 143815.0000 135259.0000 131651.0000 129919.0000 130631.0000 145639.0000 139651.0000 142919.0000 145607.0000 146567.0000 140379.0000 131583.0000 142891.0000 143731.0000 129859.0000 145547.0000 142859.0000 134259.0000 132507.0000 142823.0000 135139.0000 139583.0000 146515.0000 145479.0000 140307.0000 145475.0000 142775.0000 127299.0000 141115.0000 140303.0000 136147.0000 136143.0000 142003.0000 136135.0000 144575.0000 133359.0000 144551.0000 127103.0000 127123.0000 128059.0000 128067.0000 128115.0000 128847.0000 129623.0000 129799.0000 130475.0000 131391.0000 131415.0000 132207.0000 132307.0000 132423.0000 132439.0000 133063.0000 133111.0000 133123.0000 133211.0000 133339.0000 134147.0000 134151.0000 134899.0000 134927.0000 134947.0000 135787.0000 135839.0000 136003.0000 136027.0000 136055.0000 136087.0000 136103.0000 136755.0000 136943.0000 137687.0000 137691.0000 137771.0000 137843.0000 137867.0000 137975.0000 138683.0000 138711.0000 138787.0000 138839.0000 139395.0000 139463.0000 139491.0000 140147.0000 140171.0000 140879.0000 140919.0000 141047.0000 141631.0000 141659.0000 141715.0000 141775.0000 141819.0000 141823.0000 141855.0000 141867.0000 142691.0000 143455.0000 143539.0000 143639.0000 144259.0000 144415.0000 144479.0000 144519.0000 145187.0000 145287.0000 145295.0000 146147.0000 146191.0000 146207.0000 146247.0000 146251.0000 146271.0000 154407.0000 147819.0000 150499.0000 148495.0000 151211.0000 152203.0000 155915.0000 149359.0000 149355.0000 151151.0000 155899.0000 158735.0000 158719.0000 150235.0000 150227.0000 151103.0000 160567.0000 160563.0000 152115.0000 154891.0000 156843.0000 150207.0000 153015.0000 157683.0000 160535.0000 147339.0000 148327.0000 164215.0000 158675.0000 149227.0000 154871.0000 152995.0000 152103.0000 160507.0000 152099.0000 160503.0000 154863.0000 162339.0000 160491.0000 147103.0000 147143.0000 147211.0000 147223.0000 147235.0000 147239.0000 147283.0000 147287.0000 147983.0000 148051.0000 148067.0000 148275.0000 148867.0000 149087.0000 149103.0000 149179.0000 149903.0000 149991.0000 150019.0000 150079.0000 150879.0000 150911.0000 150923.0000 150935.0000 150975.0000 150999.0000 151003.0000 151699.0000 151723.0000 151823.0000 151839.0000 151971.0000 151999.0000 152039.0000 152087.0000 152599.0000 152695.0000 152795.0000 152867.0000 152891.0000 152895.0000 152971.0000 152975.0000 153535.0000 153651.0000 153827.0000 153831.0000 153943.0000 153959.0000 154519.0000 154587.0000 154719.0000 154743.0000 154819.0000 155431.0000 155447.0000 155675.0000 155711.0000 156587.0000 156607.0000 156711.0000 156799.0000 157275.0000 157287.0000 157319.0000 157427.0000 157447.0000 157579.0000 158259.0000 158523.0000 158655.0000 159143.0000 159303.0000 159331.0000 159371.0000 159395.0000 159435.0000 159503.0000 159531.0000 159559.0000 160111.0000 160151.0000 160207.0000 160303.0000 160311.0000 160395.0000 160411.0000 160459.0000 161107.0000 161163.0000 161195.0000 161211.0000 161219.0000 161387.0000 161439.0000 162987.0000 163031.0000 163051.0000 163147.0000 163203.0000 163315.0000 163331.0000 163395.0000 163787.0000 163875.0000 164127.0000 164767.0000 164939.0000 165067.0000 165099.0000 165167.0000 165299.0000 165771.0000 166679.0000 166791.0000 166859.0000 166903.0000 167059.0000 167727.0000 167803.0000 168935.0000 170199.0000 170207.0000 170211.0000 170227.0000 170383.0000 170571.0000 171811.0000 171823.0000 171967.0000 171983.0000 172083.0000 172103.0000 172107.0000 172111.0000 172115.0000 172163.0000 172639.0000 172711.0000 172855.0000 201727.0000 207371.0000 201707.0000 174915.0000 204651.0000 204291.0000 208763.0000 206099.0000 210279.0000 213335.0000 211987.0000 210219.0000 183019.0000 204531.0000 203075.0000 174731.0000 197155.0000 200131.0000 195227.0000 198235.0000 193719.0000 201107.0000 181263.0000 205627.0000 208539.0000 173587.0000 173907.0000 174579.0000 175163.0000 175171.0000 175259.0000 175351.0000 175407.0000 175455.0000 213507.0000 176099.0000 176787.0000 176947.0000 177095.0000 178423.0000 178743.0000 179495.0000 180083.0000 180247.0000 180295.0000 180339.0000 180455.0000 180883.0000 180931.0000 181819.0000 183371.0000 183383.0000 183435.0000 183627.0000 183687.0000 183783.0000 185003.0000 185047.0000 185303.0000 185351.0000 185375.0000 185483.0000 187471.0000 187563.0000 188391.0000 188527.0000 188583.0000 188643.0000 188819.0000 189299.0000 189935.0000 189967.0000 190083.0000 190267.0000 190291.0000 190355.0000 190359.0000 191487.0000 191523.0000 191579.0000 191771.0000 191807.0000 191935.0000 191955.0000 193007.0000 193043.0000 193091.0000 193147.0000 193155.0000 193263.0000 193271.0000 193275.0000 193339.0000 193371.0000 193399.0000 193403.0000 194395.0000 194747.0000 194831.0000 194871.0000 195859.0000 195887.0000 195919.0000 196071.0000 196263.0000 196363.0000 197447.0000 197491.0000 197591.0000 197687.0000 198991.0000 199051.0000 199083.0000 199227.0000 199395.0000 200303.0000 200451.0000 200519.0000 200547.0000 200635.0000 200643.0000 201771.0000 201823.0000 202055.0000 202111.0000 202163.0000 202219.0000 202283.0000 203267.0000 203371.0000 203479.0000 203495.0000 203879.0000 204867.0000 204887.0000 204895.0000 204927.0000 204983.0000 205391.0000 205407.0000 206419.0000 206503.0000 206603.0000 206643.0000 206651.0000 206655.0000 207767.0000 207811.0000 207895.0000 207971.0000 208159.0000 209291.0000 209367.0000 209415.0000 209539.0000 209543.0000 209551.0000 210023.0000 210027.0000 210671.0000 210683.0000 210735.0000 210739.0000 210815.0000 210827.0000 211027.0000 211439.0000 212251.0000 212363.0000 212367.0000 212387.0000 212399.0000 212419.0000 212439.0000 212455.0000 212519.0000 212567.0000 213079.0000 222627.0000 247639.0000 240251.0000 247631.0000 238807.0000 243011.0000 232643.0000 232631.0000 239859.0000 252211.0000 232587.0000 249455.0000 250595.0000 235695.0000 234275.0000 215083.0000 241367.0000 232911.0000 249431.0000 238455.0000 226639.0000 234511.0000 239707.0000 232863.0000 247303.0000 235579.0000 241199.0000 235863.0000 246319.0000 232775.0000 243083.0000 238595.0000 249179.0000 213811.0000 213843.0000 214171.0000 214835.0000 215391.0000 215499.0000 215627.0000 216887.0000 216943.0000 216999.0000 217011.0000 217147.0000 217187.0000 218559.0000 219739.0000 219947.0000 219995.0000 220123.0000 220151.0000 220219.0000 221367.0000 221443.0000 221527.0000 221647.0000 222971.0000 223047.0000 223159.0000 224103.0000 224163.0000 224359.0000 224447.0000 224459.0000 225551.0000 225591.0000 225631.0000 225771.0000 225823.0000 225847.0000 225899.0000 225939.0000 226979.0000 227119.0000 227183.0000 227195.0000 227203.0000 227247.0000 227303.0000 228455.0000 228471.0000 228499.0000 228527.0000 228595.0000 228979.0000 229083.0000 229887.0000 229967.0000 230195.0000 230211.0000 230247.0000 230283.0000 230947.0000 231495.0000 231571.0000 231671.0000 231687.0000 231695.0000 231807.0000 233055.0000 233063.0000 233163.0000 233247.0000 233291.0000 233379.0000 233551.0000 233587.0000 234727.0000 234803.0000 234947.0000 234975.0000 235263.0000 236095.0000 236215.0000 236267.0000 236391.0000 237771.0000 237807.0000 237843.0000 238875.0000 238951.0000 238999.0000 239051.0000 239119.0000 239187.0000 239199.0000 240307.0000 240551.0000 240555.0000 240667.0000 240703.0000 241091.0000 241823.0000 241859.0000 241955.0000 242099.0000 242131.0000 242531.0000 242707.0000 243531.0000 243675.0000 243719.0000 244927.0000 244959.0000 245227.0000 245815.0000 245819.0000 246463.0000 246615.0000 246647.0000 246703.0000 246763.0000 248067.0000 248139.0000 248203.0000 248351.0000 248439.0000 248551.0000 249607.0000 249643.0000 249755.0000 249979.0000 251191.0000 251327.0000 251875.0000 262367.0000 278867.0000 278847.0000 284463.0000 265159.0000 274555.0000 281991.0000 267067.0000 258539.0000 267059.0000 281979.0000 258915.0000 269459.0000 265703.0000 256723.0000 253723.0000 265059.0000 257187.0000 288135.0000 287463.0000 263487.0000 265019.0000 275015.0000 265643.0000 274435.0000 283743.0000 285559.0000 276883.0000 291879.0000 274999.0000 269419.0000 254111.0000 260183.0000 288083.0000 283719.0000 291103.0000 273107.0000 256615.0000 261627.0000 284327.0000 253603.0000 274355.0000 263355.0000 287303.0000 291051.0000 278759.0000 260127.0000 291003.0000 279963.0000 258363.0000 263867.0000 271183.0000 276163.0000 269363.0000 287211.0000 261547.0000 263863.0000 279923.0000 285367.0000 272443.0000 289047.0000 254027.0000 273023.0000 291727.0000 269315.0000 260515.0000 253955.0000 269255.0000 258703.0000 287971.0000 269227.0000 269191.0000 260395.0000 267283.0000 278611.0000 272927.0000 258611.0000 290919.0000 269151.0000 286015.0000 287115.0000 287931.0000 278523.0000 289803.0000 280371.0000 278491.0000 276547.0000 276535.0000 280331.0000 280323.0000 276503.0000 282051.0000 287807.0000 272787.0000 289627.0000 283939.0000 287727.0000 289531.0000 252667.0000 252687.0000 252987.0000 254299.0000 254455.0000 254547.0000 254563.0000 254599.0000 255783.0000 255835.0000 255851.0000 255863.0000 255903.0000 255999.0000 256199.0000 256355.0000 257367.0000 257491.0000 257551.0000 257559.0000 257843.0000 259003.0000 259163.0000 259235.0000 259263.0000 259347.0000 260751.0000 260835.0000 260851.0000 260899.0000 261003.0000 262571.0000 262627.0000 262847.0000 262915.0000 262947.0000 262979.0000 264163.0000 264255.0000 264363.0000 264411.0000 264535.0000 264539.0000 265783.0000 265787.0000 265823.0000 265871.0000 266251.0000 266331.0000 266375.0000 266403.0000 266703.0000 266735.0000 267659.0000 267851.0000 267927.0000 268003.0000 268103.0000 268235.0000 268243.0000 269619.0000 269791.0000 269835.0000 269927.0000 270007.0000 270055.0000 270099.0000 270151.0000 270195.0000 270247.0000 270491.0000 271567.0000 271671.0000 271799.0000 271963.0000 271995.0000 273271.0000 273383.0000 273407.0000 273443.0000 273447.0000 273603.0000 273643.0000 273835.0000 273867.0000 275267.0000 275395.0000 275431.0000 275539.0000 275571.0000 275903.0000 275995.0000 277051.0000 277223.0000 277331.0000 277371.0000 277767.0000 277787.0000 278947.0000 278959.0000 279155.0000 279179.0000 279183.0000 279243.0000 279327.0000 279335.0000 279467.0000 279487.0000 279591.0000 279759.0000 280779.0000 281123.0000 281379.0000 281475.0000 282827.0000 282951.0000 283155.0000 283195.0000 284539.0000 284691.0000 284703.0000 284859.0000 284947.0000 285043.0000 285059.0000 285287.0000 286375.0000 286391.0000 286683.0000 286807.0000 286823.0000 287047.0000 288271.0000 288403.0000 288523.0000 288563.0000 288587.0000 288659.0000 288663.0000 288887.0000 290283.0000 290383.0000 290627.0000 290643.0000 290663.0000 290899.0000 331803.0000 306939.0000 305055.0000 304423.0000 302503.0000 325963.0000 318739.0000 295043.0000 304403.0000 320183.0000 296919.0000 326863.0000 330319.0000 325431.0000 332707.0000 332703.0000 329775.0000 321615.0000 326843.0000 331759.0000 332691.0000 326827.0000 332687.0000 323067.0000 299391.0000 321019.0000 331159.0000 325403.0000 316459.0000 298707.0000 329735.0000 332671.0000 332651.0000 308251.0000 309807.0000 326787.0000 293083.0000 326779.0000 330255.0000 332639.0000 298599.0000 313035.0000 332603.0000 302351.0000 308203.0000 313711.0000 296739.0000 331083.0000 296731.0000 320107.0000 331063.0000 321539.0000 306015.0000 321535.0000 329607.0000 308151.0000 308147.0000 310391.0000 328255.0000 322491.0000 305991.0000 303011.0000 316327.0000 305975.0000 328239.0000 314775.0000 316299.0000 305955.0000 325879.0000 321515.0000 300387.0000 329547.0000 329539.0000 325211.0000 295519.0000 320087.0000 312943.0000 294731.0000 329515.0000 296611.0000 323007.0000 296595.0000 320871.0000 296567.0000 294699.0000 304823.0000 333111.0000 308035.0000 311323.0000 330155.0000 319499.0000 322423.0000 305883.0000 315231.0000 297351.0000 330923.0000 305871.0000 325115.0000 320815.0000 327287.0000 305851.0000 330135.0000 324347.0000 328163.0000 325103.0000 329427.0000 292783.0000 294603.0000 301103.0000 311947.0000 325795.0000 302119.0000 331615.0000 308675.0000 304751.0000 328155.0000 312839.0000 310251.0000 293511.0000 293507.0000 325779.0000 295311.0000 302859.0000 310235.0000 307955.0000 321407.0000 302851.0000 308631.0000 328663.0000 323751.0000 313539.0000 293443.0000 302787.0000 293411.0000 299075.0000 306547.0000 308611.0000 308603.0000 321363.0000 302747.0000 328135.0000 323743.0000 318447.0000 323735.0000 332975.0000 295119.0000 306475.0000 304579.0000 308547.0000 310123.0000 319991.0000 300723.0000 313379.0000 302579.0000 310047.0000 321287.0000 324215.0000 313303.0000 313295.0000 309971.0000 315051.0000 321271.0000 315031.0000 309943.0000 319919.0000 315027.0000 316627.0000 319887.0000 328539.0000 318323.0000 329939.0000 325603.0000 322703.0000 332875.0000 328475.0000 325559.0000 332867.0000 324091.0000 328427.0000 329815.0000 331243.0000 292011.0000 292159.0000 292443.0000 292447.0000 292567.0000 292715.0000 293895.0000 294147.0000 294259.0000 294335.0000 294383.0000 295799.0000 296163.0000 296219.0000 296239.0000 296331.0000 296371.0000 296447.0000 297987.0000 298031.0000 298067.0000 298191.0000 298231.0000 298275.0000 299895.0000 299919.0000 299975.0000 300043.0000 300051.0000 300199.0000 301667.0000 301747.0000 301807.0000 303239.0000 303251.0000 303291.0000 303463.0000 303495.0000 303651.0000 303915.0000 305383.0000 305543.0000 305659.0000 305679.0000 305807.0000 307111.0000 307171.0000 307207.0000 307299.0000 307411.0000 307535.0000 307651.0000 307675.0000 307755.0000 307787.0000 307803.0000 308915.0000 308967.0000 309115.0000 309215.0000 309243.0000 309279.0000 309427.0000 309511.0000 309523.0000 309575.0000 310803.0000 310835.0000 311119.0000 311123.0000 311127.0000 311171.0000 311179.0000 312467.0000 312591.0000 312775.0000 314167.0000 314483.0000 314503.0000 315479.0000 315503.0000 315759.0000 315959.0000 316107.0000 316127.0000 317119.0000 317155.0000 317283.0000 317295.0000 317379.0000 317383.0000 317455.0000 317539.0000 317543.0000 317663.0000 317687.0000 317735.0000 317787.0000 317863.0000 319055.0000 319103.0000 319199.0000 319259.0000 320675.0000 321743.0000 321919.0000 321987.0000 322067.0000 322207.0000 323315.0000 323451.0000 323515.0000 323643.0000 323651.0000 324567.0000 324579.0000 324743.0000 324755.0000 324903.0000 324951.0000 325039.0000 326091.0000 326111.0000 326163.0000 326231.0000 326287.0000 326303.0000 326491.0000 327571.0000 327667.0000 327767.0000 327791.0000 327931.0000 327999.0000 328067.0000 328951.0000 329075.0000 329243.0000 329263.0000 330407.0000 330555.0000 330643.0000 330659.0000 330703.0000 330719.0000 330767.0000 331955.0000 332003.0000 332179.0000 332203.0000 332215.0000 340639.0000 367171.0000 361927.0000 354139.0000 337587.0000 347959.0000 365343.0000 363547.0000 349999.0000 367115.0000 355359.0000 352763.0000 335615.0000 364791.0000 366455.0000 343175.0000 352251.0000 361343.0000 359815.0000 347947.0000 359811.0000 358591.0000 339943.0000 338375.0000 358579.0000 361319.0000 370099.0000 353639.0000 350911.0000 337031.0000 350899.0000 358563.0000 338355.0000 349467.0000 352219.0000 339923.0000 353619.0000 361303.0000 361299.0000 346335.0000 350895.0000 361295.0000 349443.0000 370067.0000 364719.0000 370063.0000 334087.0000 338331.0000 339891.0000 352199.0000 364703.0000 352191.0000 341511.0000 359751.0000 357379.0000 338991.0000 343091.0000 364671.0000 370031.0000 357367.0000 344711.0000 353555.0000 334611.0000 349947.0000 366339.0000 338307.0000 343075.0000 364635.0000 341487.0000 353531.0000 334031.0000 364607.0000 341475.0000 359687.0000 369983.0000 341471.0000 334015.0000 344695.0000 356559.0000 366307.0000 352695.0000 343051.0000 340547.0000 352087.0000 339811.0000 371859.0000 361191.0000 362831.0000 338935.0000 350807.0000 356083.0000 368163.0000 362787.0000 333975.0000 340523.0000 352043.0000 358415.0000 333967.0000 350799.0000 359655.0000 344631.0000 368135.0000 362771.0000 335487.0000 361163.0000 366271.0000 336915.0000 345339.0000 352035.0000 342959.0000 352011.0000 341387.0000 354691.0000 344599.0000 371783.0000 348503.0000 357271.0000 348499.0000 353447.0000 366235.0000 366223.0000 334559.0000 341371.0000 363391.0000 351987.0000 368083.0000 344567.0000 368079.0000 356043.0000 351979.0000 358375.0000 353431.0000 336867.0000 357247.0000 369855.0000 366203.0000 365243.0000 336847.0000 354659.0000 339711.0000 333919.0000 338159.0000 351951.0000 358347.0000 337467.0000 364443.0000 362695.0000 357227.0000 354615.0000 344511.0000 342095.0000 358331.0000 366151.0000 355247.0000 355995.0000 353367.0000 357215.0000 348471.0000 346087.0000 349303.0000 364395.0000 353351.0000 366135.0000 362643.0000 368827.0000 351871.0000 339619.0000 344475.0000 358307.0000 369767.0000 366119.0000 342079.0000 365191.0000 371683.0000 358295.0000 362631.0000 372355.0000 337455.0000 372351.0000 337451.0000 360211.0000 342067.0000 344443.0000 339591.0000 364319.0000 333863.0000 364315.0000 369727.0000 366075.0000 335939.0000 347699.0000 341255.0