<?xml version="1.0"?>
<VTKFile type="RectilinearGrid" version="1.0" byte_order="LittleEndian" header_type="UInt64">
<RectilinearGrid WholeExtent="25 50 0 25 0 15">
<Piece Extent="25 50 0 25 0 15">
<Coordinates>
<DataArray type="Float64" Name="Array X-Axis" format="ascii" RangeMin="15.0" RangeMax="30.0">
15.0 15.6 16.2 16.8 17.4 18.0 18.6 19.2 19.8 20.4 21.0 21.6 22.2 22.8 23.4 24.0 24.6 25.2 25.8 26.4 27.0 27.6 28.2 28.8 29.4 30.0 
</DataArray>
<DataArray type="Float64" Name="Array Y-Axis" format="ascii" RangeMin="0.0" RangeMax="15.0">
0.0 0.6 1.2 1.8 2.4 3.0 3.6 4.2 4.8 5.4 6.0 6.6 7.2 7.8 8.4 9.0 9.6 10.2 10.8 11.4 12.0 12.6 13.2 13.8 14.4 15.0 
</DataArray>
<DataArray type="Float64" Name="Array Z-Axis" format="ascii" RangeMin="0.0" RangeMax="9.0">
0.0 0.6 1.2 1.8 2.4 3.0 3.6 4.2 4.8 5.4 6.0 6.6 7.2 7.8 8.4 9.0 
</DataArray>
</Coordinates>
<PointData>
<DataArray Name="TEMPERATURE" NumberOfComponents="1" type="Float64" format="ascii">
20.0 20.0 20.0 20.0 20.0 20.0 20.1 20.1 20.1 20.1 20.0 20.0 20.0 20.0 20.0 20.0 20.0 20.0 20.0 20.0 20.0 20.0 20.0 20.0 20.0 20.0 20.1 20.1 20.1 20.1 20.1 20.1 20.1 20.1 20.1 20.1 20.1 20.1 20.1 20.1 20.1 20.1 20.1 20.1 20.1 20.1 20.1 20.1 20.1 20.1 20.1 20.0 20.1 20.1 20.2 20.2 20.2 20.2 20.2 20.2 20.2 20.2 20.2 20.2 20.1 20.1 20.1 20.1 20.1 20.1 20.1 20.1 20.1 20.1 20.1 20.1 20.1 20.0 20.2 20.2 20.3 20.3 20.3 20.3 20.3 20.3 20.3 20.3 20.3 20.2 20.2 20.2 20.2 20.2 20.2 20.2 20.2 20.2 20.2 20.2 20.2 20.2 20.1 20.0 20.3 20.3 20.3 20.4 20.4 20.4 20.4 20.4 20.4 20.4 20.4 20.3 20.3 20.3 20.3 20.3 20.3 20.3 20.3 20.3 20.3 20.3 20.3 20.1 20.1 20.0 20.4 20.4 20.4 20.5 20.5 20.5 20.5 20.5 20.5 20.5 20.5 20.4 20.4 20.4 20.4 20.4 20.4 20.4 20.4 20.4 20.4 20.4 20.2 20.1 20.1 20.0 20.5 20.5 20.6 20.6 20.6 20.6 20.6 20.6 20.7 20.7 20.6 20.5 20.5 20.5 20.5 20.5 20.5 20.5 20.6 20.6 20.5 20.3 20.2 20.1 20.1 20.0 20.6 20.6 20.7 20.7 20.8 20.7 20.7 20.8 20.8 20.8 20.7 20.7 20.6 20.6 20.6 20.6 20.6 20.7 20.7 20.6 20.4 20.3 20.2 20.1 20.1 20.0 20.7 20.8 20.8 20.9 20.9 20.9 20.9 21.0 21.0 21.0 20.9 20.8 20.7 20.7 20.7 20.8 20.8 20.8 20.7 20.6 20.4 20.3 20.2 20.2 20.1 20.0 20.8 20.9 21.0 21.1 21.1 21.1 21.1 21.2 21.2 21.1 21.0 20.9 20.9 20.9 21.0 21.0 21.0 20.9 20.7 20.5 20.4 20.3 20.2 20.2 20.1 20.0 21.0 21.0 21.2 21.3 21.3 21.3 21.3 21.4 21.4 21.3 21.2 21.1 21.1 21.2 21.2 21.2 21.1 20.9 20.7 20.5 20.4 20.3 20.3 20.2 20.1 20.0 21.1 21.2 21.4 21.5 21.6 21.6 21.6 21.6 21.7 21.6 21.4 21.3 21.4 21.4 21.4 21.3 21.1 20.8 20.7 20.6 20.5 20.4 20.3 20.2 20.1 20.0 21.3 21.4 21.6 21.7 21.8 21.9 22.0 22.0 22.0 21.8 21.7 21.7 21.7 21.7 21.6 21.3 21.1 20.9 20.7 20.6 20.5 20.4 20.3 20.2 20.1 20.1 21.6 21.7 21.8 22.0 22.2 22.3 22.4 22.3 22.3 22.1 22.0 22.0 22.0 21.9 21.6 21.3 21.1 20.9 20.8 20.6 20.5 20.4 20.3 20.2 20.1 20.1 21.9 22.0 22.2 22.4 22.6 22.8 22.8 22.8 22.7 22.6 22.5 22.5 22.3 22.0 21.6 21.3 21.1 21.0 20.8 20.7 20.5 20.4 20.3 20.2 20.1 20.1 22.2 22.4 22.6 22.9 23.1 23.3 23.4 23.5 23.3 23.2 23.0 22.8 22.4 22.0 21.6 21.4 21.2 21.0 20.9 20.7 20.6 20.4 20.3 20.2 20.1 20.1 22.6 22.9 23.1 23.4 23.9 24.4 24.4 24.2 24.0 23.8 23.5 23.0 22.5 22.0 21.7 21.5 21.3 21.1 20.9 20.7 20.6 20.5 20.4 20.2 20.1 20.1 23.1 23.4 23.7 24.0 24.6 25.7 26.0 25.4 24.9 24.4 23.8 23.2 22.6 22.1 21.9 21.6 21.4 21.2 21.0 20.8 20.7 20.5 20.4 20.3 20.2 20.1 23.5 23.9 24.4 25.0 25.9 27.8 28.6 27.8 26.3 24.9 24.2 23.4 22.8 22.4 22.1 21.8 21.5 21.3 21.1 20.9 20.8 20.6 20.5 20.3 20.2 20.1 24.1 24.7 25.5 27.0 32.0 39.1 40.6 37.8 31.6 25.9 24.8 24.0 23.3 22.8 22.4 22.0 21.7 21.4 21.2 21.0 20.8 20.6 20.5 20.3 20.2 20.1 25.0 25.9 27.3 31.3 37.7 49.2 51.0 43.1 34.4 27.4 26.0 24.8 23.8 23.1 22.7 22.2 21.9 21.5 21.2 21.0 20.8 20.7 20.5 20.3 20.2 20.1 25.7 26.9 28.5 33.5 37.6 20.0 20.0 35.7 32.5 28.5 26.8 25.3 24.1 23.4 22.8 22.3 21.9 21.6 21.3 21.0 20.9 20.7 20.5 20.3 20.2 20.1 25.6 26.9 28.2 31.7 34.7 20.0 20.0 32.8 30.8 27.9 26.4 25.0 24.0 23.3 22.7 22.2 21.8 21.5 21.3 21.1 20.9 20.7 20.5 20.3 20.2 20.1 25.0 26.1 27.2 30.5 35.9 39.9 37.1 31.9 28.5 26.4 25.3 24.3 23.7 23.0 22.5 22.1 21.7 21.5 21.3 21.1 20.9 20.7 20.5 20.3 20.2 20.1 24.3 25.0 25.7 28.3 32.8 34.4 33.0 29.9 26.5 25.1 24.3 23.7 23.2 22.7 22.3 21.9 21.6 21.4 21.2 21.0 20.8 20.6 20.5 20.3 20.2 20.1 22.8 24.1 24.7 25.6 27.0 27.9 28.1 27.0 25.3 24.3 23.6 23.1 22.7 22.3 22.0 21.7 21.5 21.3 21.1 20.9 20.7 20.6 20.4 20.3 20.2 20.1 20.0 20.0 20.0 20.0 20.0 20.0 20.0 20.1 20.1 20.0 20.0 20.0 20.0 20.0 20.0 20.0 20.0 20.0 20.0 20.0 20.0 20.0 20.0 20.0 20.0 20.0 20.1 20.1 20.1 20.1 20.1 20.1 20.1 20.1 20.1 20.1 20.1 20.1 20.1 20.1 20.1 20.1 20.1 20.1 20.1 20.1 20.1 20.1 20.1 20.1 20.1 20.0 20.1 20.1 20.1 20.2 20.2 20.2 20.2 20.2 20.2 20.2 20.2 20.1 20.1 20.1 20.1 20.1 20.1 20.1 20.1 20.1 20.1 20.1 20.2 20.1 20.1 20.0 20.2 20.2 20.2 20.2 20.2 20.2 20.2 20.2 20.3 20.3 20.3 20.2 20.2 20.2 20.2 20.2 20.2 20.2 20.2 20.2 20.2 20.2 20.2 20.2 20.1 20.0 20.3 20.3 20.3 20.3 20.4 20.3 20.3 20.3 20.4 20.4 20.3 20.3 20.3 20.3 20.3 20.3 20.3 20.3 20.3 20.3 20.3 20.3 20.3 20.1 20.1 20.0 20.4 20.4 20.4 20.5 20.5 20.4 20.4 20.5 20.5 20.5 20.5 20.4 20.4 20.4 20.4 20.3 20.3 20.4 20.4 20.4 20.4 20.4 20.2 20.1 20.1 20.0 20.4 20.5 20.5 20.6 20.6 20.6 20.6 20.6 20.6 20.6 20.6 20.5 20.5 20.5 20.5 20.5 20.5 20.5 20.6 20.6 20.5 20.3 20.2 20.1 20.1 20.0 20.6 20.6 20.7 20.7 20.7 20.7 20.7 20.8 20.8 20.8 20.7 20.6 20.6 20.6 20.6 20.6 20.6 20.7 20.7 20.6 20.4 20.3 20.2 20.1 20.1 20.0 20.7 20.7 20.8 20.9 20.9 20.9 20.9 21.0 21.0 20.9 20.8 20.8 20.7 20.7 20.7 20.8 20.8 20.8 20.7 20.5 20.4 20.3 20.2 20.1 20.1 20.0 20.8 20.9 21.0 21.0 21.1 21.1 21.1 21.2 21.2 21.1 21.0 20.9 20.9 20.9 21.0 21.0 21.0 20.9 20.7 20.5 20.4 20.3 20.2 20.1 20.1 20.0 20.9 21.0 21.1 21.2 21.3 21.4 21.4 21.4 21.4 21.3 21.2 21.1 21.1 21.2 21.2 21.2 21.1 20.9 20.7 20.5 20.4 20.3 20.2 20.2 20.1 20.0 21.1 21.2 21.3 21.5 21.6 21.7 21.7 21.7 21.7 21.5 21.4 21.4 21.4 21.5 21.4 21.3 21.1 20.8 20.7 20.5 20.4 20.3 20.3 20.2 20.1 20.0 21.3 21.4 21.6 21.7 21.9 22.0 22.1 22.1 22.0 21.8 21.7 21.7 21.7 21.7 21.6 21.3 21.1 20.8 20.7 20.6 20.5 20.4 20.3 20.2 20.1 20.0 21.6 21.7 21.9 22.1 22.3 22.4 22.5 22.5 22.3 22.2 22.1 22.1 22.1 21.9 21.6 21.3 21.1 20.9 20.7 20.6 20.5 20.4 20.3 20.2 20.1 20.0 21.9 22.1 22.2 22.5 22.8 23.0 23.0 23.0 22.8 22.7 22.6 22.5 22.3 22.0 21.6 21.3 21.1 20.9 20.8 20.6 20.5 20.4 20.3 20.2 20.1 20.1 22.3 22.5 22.7 23.0 23.3 23.7 24.1 23.9 23.5 23.3 23.1 22.9 22.5 22.0 21.7 21.4 21.2 21.0 20.8 20.7 20.5 20.4 20.3 20.2 20.1 20.1 22.7 23.0 23.3 23.6 24.1 24.9 25.6 25.6 24.7 23.9 23.6 23.1 22.6 22.1 21.8 21.5 21.3 21.1 20.9 20.7 20.6 20.4 20.3 20.2 20.1 20.1 23.2 23.6 24.0 24.7 25.9 27.1 27.5 27.0 25.8 24.6 24.0 23.3 22.7 22.2 21.9 21.6 21.4 21.2 21.0 20.8 20.6 20.5 20.4 20.3 20.1 20.1 23.7 24.2 25.0 27.7 31.6 32.1 30.3 29.1 27.1 25.2 24.4 23.6 23.0 22.5 22.1 21.8 21.5 21.3 21.1 20.9 20.7 20.6 20.4 20.3 20.2 20.1 24.3 25.4 28.3 33.1 41.0 45.3 43.2 40.0 32.6 26.3 25.1 24.2 23.4 22.9 22.5 22.1 21.7 21.5 21.2 21.0 20.8 20.6 20.5 20.3 20.2 20.1 25.1 26.6 30.5 37.8 71.3 116.9 140.1 94.3 38.5 28.3 26.3 25.2 24.0 23.3 22.8 22.3 21.9 21.6 21.2 21.0 20.8 20.6 20.5 20.3 20.2 20.1 26.2 27.6 30.0 40.2 107.7 313.2 371.5 145.5 39.1 29.5 27.2 25.7 24.4 23.5 22.9 22.4 21.9 21.6 21.3 21.0 20.8 20.7 20.5 20.3 20.2 20.1 26.3 27.8 30.4 38.7 82.8 287.3 344.6 119.1 36.2 28.8 26.6 25.3 24.3 23.5 22.8 22.3 21.9 21.5 21.3 21.0 20.8 20.7 20.5 20.3 20.2 20.1 25.4 26.5 29.0 33.6 45.5 92.8 119.3 68.3 32.1 27.0 25.5 24.5 23.8 23.1 22.6 22.2 21.8 21.5 21.3 21.0 20.8 20.6 20.5 20.3 20.2 20.1 24.4 25.1 26.2 28.8 33.7 37.6 40.1 35.9 28.0 25.5 24.6 23.8 23.3 22.8 22.3 22.0 21.6 21.4 21.2 21.0 20.8 20.6 20.5 20.3 20.2 20.1 22.9 24.3 25.0 26.1 27.8 28.9 29.2 27.8 25.7 24.7 23.9 23.3 22.8 22.4 22.0 21.7 21.5 21.2 21.1 20.9 20.7 20.5 20.4 20.3 20.1 20.1 20.0 20.0 20.0 20.0 20.0 20.0 20.0 20.0 20.0 20.0 20.0 20.0 20.0 20.0 20.0 20.0 20.0 20.0 20.0 20.0 20.0 20.0 20.0 20.0 20.0 20.0 20.0 20.1 20.1 20.1 20.1 20.1 20.1 20.1 20.1 20.1 20.1 20.1 20.1 20.1 20.1 20.1 20.1 20.0 20.0 20.0 20.0 20.0 20.1 20.1 20.1 20.0 20.1 20.1 20.1 20.1 20.1 20.1 20.1 20.1 20.2 20.2 20.1 20.1 20.1 20.1 20.1 20.1 20.1 20.1 20.1 20.1 20.1 20.1 20.1 20.1 20.1 20.0 20.2 20.2 20.2 20.2 20.2 20.2 20.2 20.2 20.2 20.2 20.2 20.2 20.2 20.2 20.2 20.2 20.2 20.2 20.1 20.2 20.2 20.2 20.2 20.2 20.1 20.0 20.2 20.3 20.3 20.3 20.3 20.3 20.3 20.3 20.4 20.3 20.3 20.3 20.3 20.2 20.2 20.2 20.2 20.2 20.2 20.3 20.3 20.3 20.2 20.1 20.1 20.0 20.3 20.3 20.4 20.4 20.4 20.4 20.4 20.4 20.5 20.5 20.4 20.4 20.3 20.3 20.3 20.3 20.3 20.3 20.4 20.4 20.4 20.3 20.2 20.1 20.0 20.0 20.4 20.4 20.5 20.5 20.6 20.6 20.6 20.6 20.6 20.6 20.5 20.5 20.4 20.4 20.4 20.4 20.5 20.5 20.5 20.5 20.4 20.3 20.2 20.1 20.0 20.0 20.5 20.6 20.6 20.7 20.7 20.7 20.7 20.8 20.8 20.7 20.6 20.6 20.5 20.5 20.6 20.6 20.6 20.6 20.6 20.5 20.4 20.3 20.2 20.1 20.1 20.0 20.6 20.7 20.8 20.8 20.9 20.9 20.9 21.0 20.9 20.9 20.8 20.7 20.7 20.7 20.7 20.8 20.8 20.8 20.7 20.5 20.4 20.2 20.2 20.1 20.1 20.0 20.8 20.8 20.9 21.0 21.1 21.1 21.1 21.2 21.1 21.0 20.9 20.9 20.9 20.9 21.0 21.0 20.9 20.8 20.7 20.5 20.3 20.2 20.2 20.1 20.1 20.0 20.9 21.0 21.1 21.2 21.3 21.4 21.4 21.4 21.4 21.3 21.2 21.1 21.2 21.2 21.2 21.1 21.0 20.8 20.6 20.5 20.4 20.3 20.2 20.1 20.1 20.0 21.1 21.2 21.3 21.5 21.6 21.7 21.8 21.8 21.7 21.6 21.5 21.5 21.5 21.5 21.4 21.3 21.1 20.8 20.6 20.5 20.4 20.3 20.2 20.1 20.1 20.0 21.3 21.4 21.6 21.8 22.0 22.1 22.2 22.2 22.0 21.9 21.8 21.8 21.8 21.7 21.5 21.3 21.1 20.8 20.6 20.5 20.4 20.3 20.2 20.1 20.1 20.0 21.6 21.8 21.9 22.2 22.4 22.6 22.7 22.7 22.5 22.3 22.3 22.2 22.1 21.9 21.6 21.3 21.1 20.8 20.7 20.6 20.4 20.3 20.2 20.2 20.1 20.0 22.0 22.2 22.4 22.7 23.0 23.3 23.5 23.4 23.1 22.9 22.8 22.6 22.4 22.1 21.7 21.4 21.1 20.9 20.7 20.6 20.5 20.4 20.3 20.2 20.1 20.0 22.4 22.7 23.0 23.3 23.8 24.9 27.0 26.3 24.0 23.5 23.3 23.0 22.6 22.2 21.8 21.4 21.2 21.0 20.8 20.6 20.5 20.4 20.3 20.2 20.1 20.1 22.9 23.3 23.7 24.2 25.2 27.6 31.3 32.6 28.3 24.4 23.8 23.3 22.8 22.3 21.9 21.5 21.2 21.0 20.8 20.7 20.5 20.4 20.3 20.2 20.1 20.1 23.4 24.1 24.8 27.9 34.9 37.4 35.0 35.2 31.6 26.0 24.4 23.7 23.0 22.5 22.0 21.7 21.4 21.1 20.9 20.8 20.6 20.5 20.3 20.2 20.1 20.1 24.0 25.1 29.6 52.7 75.8 64.7 43.4 35.2 31.5 27.3 25.0 24.1 23.3 22.7 22.2 21.9 21.6 21.3 21.1 20.9 20.7 20.5 20.4 20.3 20.1 20.1 24.8 27.4 44.7 84.6 113.0 95.8 63.0 47.4 37.1 28.4 25.7 24.7 23.8 23.1 22.6 22.2 21.8 21.5 21.2 21.0 20.8 20.6 20.4 20.3 20.2 20.1 25.8 29.3 49.3 90.0 156.2 198.3 201.5 148.4 63.4 31.5 27.2 25.8 24.5 23.6 22.9 22.4 22.0 21.6 21.3 21.0 20.8 20.6 20.4 20.3 20.2 20.1 27.2 30.4 39.8 76.2 198.8 355.8 395.9 262.1 96.5 35.1 28.2 26.5 25.0 24.0 23.2 22.5 22.0 21.7 21.3 21.0 20.8 20.6 20.4 20.3 20.2 20.1 27.6 30.2 38.6 69.9 167.3 342.9 384.7 225.6 83.4 33.7 27.6 26.1 24.8 23.8 23.1 22.5 22.0 21.6 21.3 21.0 20.8 20.6 20.4 20.3 20.2 20.1 26.2 28.9 39.2 58.1 90.2 163.0 185.8 108.0 45.1 29.2 26.3 25.2 24.2 23.4 22.8 22.3 21.9 21.5 21.3 21.0 20.8 20.6 20.4 20.3 20.1 20.1 24.8 26.9 32.8 37.0 41.2 48.5 50.0 40.2 29.7 26.7 25.3 24.3 23.6 22.9 22.5 22.0 21.7 21.4 21.2 20.9 20.7 20.5 20.4 20.3 20.1 20.1 23.2 24.9 26.4 28.2 30.4 31.4 31.0 29.1 26.6 25.5 24.5 23.7 23.1 22.5 22.1 21.8 21.5 21.2 21.0 20.8 20.6 20.5 20.4 20.2 20.1 20.1 20.0 20.0 20.0 20.0 20.0 20.0 20.0 20.0 20.0 20.0 20.0 20.0 20.0 20.0 20.0 20.0 20.0 20.0 20.0 20.0 20.0 20.0 20.0 20.0 20.0 20.0 20.1 20.1 20.1 20.1 20.1 20.1 20.1 20.1 20.1 20.1 20.1 20.1 20.1 20.1 20.1 20.0 20.0 20.0 20.0 20.0 20.0 20.0 20.0 20.1 20.1 20.0 20.1 20.1 20.1 20.1 20.1 20.1 20.1 20.1 20.2 20.2 20.1 20.1 20.1 20.1 20.1 20.1 20.1 20.1 20.1 20.1 20.1 20.1 20.1 20.1 20.1 20.0 20.2 20.2 20.2 20.2 20.2 20.2 20.2 20.2 20.3 20.2 20.2 20.2 20.2 20.2 20.2 20.2 20.2 20.2 20.2 20.2 20.2 20.2 20.2 20.1 20.1 20.0 20.2 20.3 20.3 20.3 20.3 20.3 20.3 20.3 20.4 20.3 20.3 20.3 20.3 20.2 20.2 20.2 20.2 20.2 20.2 20.3 20.3 20.3 20.2 20.1 20.0 20.0 20.3 20.4 20.4 20.4 20.4 20.4 20.4 20.5 20.5 20.5 20.4 20.4 20.4 20.3 20.3 20.3 20.3 20.3 20.4 20.4 20.4 20.3 20.2 20.1 20.0 20.0 20.4 20.5 20.5 20.6 20.6 20.6 20.6 20.6 20.6 20.6 20.5 20.5 20.5 20.4 20.4 20.4 20.5 20.5 20.5 20.5 20.4 20.3 20.2 20.1 20.0 20.0 20.5 20.6 20.6 20.7 20.8 20.7 20.8 20.8 20.8 20.7 20.7 20.6 20.6 20.6 20.6 20.6 20.6 20.6 20.6 20.5 20.4 20.3 20.2 20.1 20.0 20.0 20.6 20.7 20.8 20.9 20.9 20.9 21.0 21.0 21.0 20.9 20.8 20.8 20.7 20.7 20.7 20.8 20.8 20.7 20.6 20.5 20.4 20.2 20.2 20.1 20.1 20.0 20.8 20.9 20.9 21.1 21.1 21.2 21.2 21.2 21.2 21.1 21.0 20.9 20.9 21.0 21.0 20.9 20.9 20.8 20.6 20.5 20.3 20.3 20.2 20.1 20.1 20.0 21.0 21.0 21.1 21.3 21.4 21.4 21.5 21.5 21.5 21.3 21.2 21.2 21.2 21.2 21.2 21.1 21.0 20.8 20.6 20.5 20.4 20.3 20.2 20.1 20.1 20.0 21.2 21.2 21.4 21.5 21.7 21.8 21.8 21.9 21.8 21.6 21.5 21.5 21.5 21.4 21.4 21.2 21.0 20.8 20.6 20.5 20.4 20.3 20.2 20.1 20.1 20.0 21.4 21.5 21.6 21.8 22.0 22.2 22.3 22.3 22.1 22.0 21.9 21.9 21.8 21.7 21.5 21.3 21.1 20.9 20.7 20.5 20.4 20.3 20.2 20.2 20.1 20.0 21.7 21.8 22.0 22.3 22.5 22.8 22.9 22.9 22.7 22.5 22.4 22.3 22.1 21.9 21.6 21.4 21.1 20.9 20.7 20.6 20.5 20.4 20.2 20.2 20.1 20.0 22.1 22.3 22.5 22.8 23.2 23.5 23.8 23.7 23.3 23.1 22.9 22.7 22.4 22.1 21.8 21.5 21.2 21.0 20.8 20.6 20.5 20.4 20.3 20.2 20.1 20.0 22.5 22.8 23.1 23.5 24.0 25.2 28.5 27.9 24.5 23.8 23.5 23.1 22.7 22.3 21.9 21.5 21.3 21.0 20.8 20.7 20.5 20.4 20.3 20.2 20.1 20.0 23.0 23.4 24.2 25.0 26.2 30.8 39.1 40.9 31.7 24.9 24.1 23.5 23.0 22.5 22.0 21.6 21.3 21.1 20.9 20.7 20.6 20.4 20.3 20.2 20.1 20.1 23.7 24.5 26.4 34.0 45.1 50.7 52.6 52.2 41.3 28.7 24.8 23.9 23.3 22.7 22.1 21.8 21.4 21.2 21.0 20.8 20.6 20.5 20.3 20.2 20.1 20.1 25.4 27.2 44.0 95.4 124.9 95.7 66.4 54.0 42.4 31.6 25.6 24.5 23.6 23.0 22.4 22.0 21.7 21.4 21.1 20.9 20.7 20.5 20.4 20.3 20.1 20.1 27.7 35.4 87.1 178.0 200.3 140.2 91.6 69.6 48.5 32.8 26.6 25.2 24.2 23.4 22.8 22.3 21.9 21.6 21.3 21.0 20.8 20.6 20.4 20.3 20.1 20.1 31.7 44.5 105.3 200.6 249.3 246.8 229.9 191.2 109.2 43.1 28.4 26.3 24.9 23.9 23.2 22.5 22.1 21.7 21.4 21.1 20.8 20.6 20.4 20.3 20.1 20.1 34.7 43.3 78.8 168.5 293.6 389.4 411.3 343.3 183.8 57.6 29.9 27.1 25.5 24.3 23.4 22.7 22.2 21.8 21.4 21.1 20.8 20.6 20.4 20.3 20.1 20.1 33.4 36.6 64.9 149.0 265.0 366.7 386.2 289.8 143.8 49.9 29.2 26.8 25.3 24.2 23.4 22.7 22.2 21.7 21.4 21.1 20.8 20.6 20.4 20.3 20.1 20.1 30.5 34.6 67.8 123.6 162.0 199.2 194.8 121.5 57.8 32.9 27.5 25.8 24.6 23.7 23.0 22.5 22.0 21.6 21.3 21.1 20.8 20.6 20.4 20.3 20.1 20.1 27.0 30.9 53.7 70.2 70.7 74.2 62.8 42.1 31.0 27.9 26.1 24.8 23.9 23.2 22.6 22.2 21.8 21.5 21.2 21.0 20.8 20.6 20.4 20.3 20.1 20.1 23.5 25.9 33.3 37.8 37.1 36.2 32.9 29.9 27.3 26.1 25.0 24.1 23.4 22.8 22.3 21.9 21.6 21.3 21.1 20.9 20.7 20.5 20.4 20.2 20.1 20.1 20.0 20.0 20.0 20.0 20.0 20.0 20.0 20.0 20.0 20.0 20.0 20.0 20.0 20.0 20.0 20.0 20.0 20.0 20.0 20.0 20.0 20.0 20.0 20.0 20.0 20.0 20.1 20.1 20.1 20.1 20.1 20.1 20.1 20.1 20.1 20.1 20.1 20.1 20.1 20.1 20.1 20.1 20.1 20.1 20.1 20.0 20.0 20.0 20.1 20.1 20.1 20.0 20.1 20.1 20.2 20.2 20.2 20.1 20.1 20.2 20.2 20.2 20.2 20.1 20.1 20.1 20.1 20.1 20.1 20.1 20.1 20.1 20.1 20.1 20.1 20.1 20.1 20.0 20.2 20.2 20.2 20.3 20.3 20.2 20.2 20.3 20.3 20.3 20.2 20.2 20.2 20.2 20.2 20.2 20.2 20.2 20.2 20.2 20.2 20.2 20.2 20.1 20.1 20.0 20.3 20.3 20.3 20.4 20.4 20.3 20.4 20.4 20.4 20.4 20.3 20.3 20.3 20.3 20.3 20.3 20.3 20.3 20.3 20.3 20.3 20.3 20.2 20.1 20.1 20.0 20.4 20.4 20.5 20.5 20.5 20.5 20.5 20.5 20.5 20.5 20.5 20.4 20.4 20.4 20.4 20.4 20.4 20.4 20.4 20.4 20.4 20.3 20.2 20.1 20.0 20.0 20.5 20.5 20.6 20.6 20.6 20.6 20.6 20.7 20.7 20.7 20.6 20.6 20.5 20.5 20.5 20.5 20.5 20.5 20.5 20.5 20.4 20.3 20.2 20.1 20.1 20.0 20.6 20.6 20.7 20.8 20.8 20.8 20.8 20.9 20.9 20.8 20.8 20.7 20.7 20.7 20.7 20.7 20.6 20.6 20.6 20.5 20.4 20.3 20.2 20.1 20.1 20.0 20.7 20.8 20.9 20.9 21.0 21.0 21.0 21.1 21.1 21.0 20.9 20.9 20.9 20.9 20.8 20.8 20.8 20.7 20.6 20.5 20.4 20.3 20.2 20.1 20.1 20.0 20.9 20.9 21.0 21.1 21.2 21.2 21.3 21.3 21.3 21.2 21.1 21.1 21.1 21.0 21.0 21.0 20.9 20.8 20.7 20.5 20.4 20.3 20.2 20.1 20.1 20.0 21.1 21.1 21.2 21.4 21.4 21.5 21.6 21.6 21.6 21.5 21.4 21.3 21.3 21.2 21.2 21.1 21.0 20.8 20.7 20.6 20.4 20.3 20.2 20.1 20.1 20.0 21.3 21.3 21.5 21.6 21.7 21.8 21.9 22.0 21.9 21.8 21.7 21.6 21.6 21.5 21.4 21.2 21.1 20.9 20.7 20.6 20.5 20.4 20.3 20.2 20.1 20.0 21.5 21.6 21.8 21.9 22.1 22.2 22.4 22.4 22.3 22.1 22.0 21.9 21.8 21.7 21.5 21.3 21.1 21.0 20.8 20.6 20.5 20.4 20.3 20.2 20.1 20.0 21.8 21.9 22.1 22.3 22.5 22.7 23.0 23.0 22.8 22.6 22.4 22.3 22.1 21.9 21.7 21.4 21.2 21.0 20.9 20.7 20.5 20.4 20.3 20.2 20.1 20.0 22.1 22.3 22.5 22.8 23.1 23.4 23.9 23.8 23.5 23.2 22.9 22.7 22.4 22.1 21.8 21.6 21.3 21.1 20.9 20.7 20.6 20.4 20.3 20.2 20.1 20.0 22.6 22.9 23.2 23.6 23.9 24.5 26.7 26.8 24.6 23.9 23.5 23.1 22.8 22.4 22.0 21.7 21.4 21.2 21.0 20.8 20.6 20.5 20.3 20.2 20.1 20.1 23.0 23.8 24.6 25.4 26.3 30.8 41.8 42.6 31.0 25.1 24.2 23.6 23.1 22.6 22.2 21.8 21.5 21.2 21.0 20.8 20.6 20.5 20.3 20.2 20.1 20.1 23.8 25.2 29.4 38.8 41.2 48.1 64.2 64.7 49.6 32.7 25.2 24.1 23.4 22.8 22.3 21.9 21.6 21.3 21.1 20.9 20.7 20.5 20.4 20.3 20.1 20.1 26.0 30.8 62.1 121.3 111.0 75.4 81.4 74.0 57.6 38.0 26.3 24.7 23.9 23.2 22.6 22.2 21.8 21.5 21.2 21.0 20.8 20.6 20.5 20.3 20.1 20.1 31.7 49.0 126.2 231.5 185.2 104.4 110.1 89.9 56.6 35.9 27.1 25.5 24.4 23.6 23.0 22.5 22.1 21.7 21.4 21.2 20.9 20.7 20.5 20.3 20.2 20.1 45.6 83.3 178.2 280.1 224.2 188.5 240.0 205.6 118.5 48.2 28.9 26.5 25.2 24.1 23.4 22.7 22.2 21.9 21.5 21.2 20.9 20.7 20.5 20.3 20.1 20.1 52.3 89.5 165.0 261.3 247.7 273.1 356.9 325.7 198.4 67.9 30.7 27.3 25.8 24.6 23.6 22.9 22.3 21.9 21.5 21.2 20.9 20.7 20.5 20.3 20.1 20.1 43.9 67.3 136.2 234.1 226.6 220.5 270.0 242.3 149.8 58.6 30.0 27.1 25.6 24.4 23.5 22.8 22.3 21.9 21.5 21.2 20.9 20.7 20.5 20.3 20.1 20.1 37.2 60.5 131.2 202.8 177.0 136.8 132.3 96.0 57.4 36.3 27.9 26.1 24.9 23.9 23.2 22.6 22.2 21.8 21.5 21.2 20.9 20.7 20.5 20.3 20.2 20.1 30.6 46.5 91.5 127.9 111.9 83.9 64.0 43.1 32.5 28.6 26.3 25.0 24.1 23.3 22.8 22.3 22.0 21.6 21.3 21.1 20.9 20.6 20.5 20.3 20.1 20.1 23.9 28.5 42.4 57.4 52.5 39.4 34.3 31.1 27.9 26.3 25.2 24.3 23.6 22.9 22.5 22.1 21.7 21.4 21.2 21.0 20.8 20.6 20.4 20.3 20.1 20.1 20.0 20.0 20.0 20.0 20.0 20.0 20.0 20.0 20.0 20.0 20.0 20.0 20.0 20.0 20.0 20.0 20.0 20.0 20.0 20.0 20.0 20.0 20.0 20.0 20.0 20.0 20.1 20.1 20.1 20.1 20.1 20.1 20.1 20.1 20.1 20.1 20.1 20.1 20.1 20.1 20.1 20.1 20.1 20.1 20.1 20.1 20.1 20.1 20.1 20.1 20.1 20.0 20.1 20.2 20.2 20.2 20.2 20.2 20.2 20.2 20.2 20.2 20.2 20.2 20.2 20.1 20.1 20.1 20.1 20.1 20.1 20.1 20.1 20.2 20.2 20.2 20.1 20.0 20.2 20.2 20.3 20.3 20.3 20.2 20.3 20.3 20.3 20.3 20.3 20.3 20.2 20.2 20.2 20.2 20.2 20.2 20.2 20.2 20.2 20.3 20.2 20.2 20.1 20.0 20.3 20.3 20.4 20.4 20.4 20.4 20.4 20.4 20.4 20.4 20.4 20.4 20.3 20.3 20.3 20.3 20.4 20.3 20.3 20.3 20.3 20.3 20.3 20.2 20.1 20.0 20.4 20.5 20.5 20.5 20.5 20.5 20.5 20.6 20.6 20.6 20.5 20.5 20.5 20.5 20.5 20.5 20.5 20.5 20.5 20.4 20.4 20.3 20.2 20.1 20.1 20.0 20.5 20.6 20.6 20.7 20.7 20.7 20.7 20.7 20.8 20.7 20.7 20.6 20.6 20.6 20.6 20.6 20.6 20.6 20.6 20.5 20.4 20.4 20.2 20.1 20.1 20.0 20.6 20.7 20.8 20.8 20.8 20.8 20.9 20.9 21.0 20.9 20.8 20.8 20.8 20.8 20.8 20.8 20.7 20.7 20.6 20.6 20.5 20.4 20.2 20.1 20.1 20.0 20.8 20.8 20.9 21.0 21.0 21.0 21.1 21.1 21.2 21.1 21.1 21.0 21.0 21.0 20.9 20.9 20.8 20.8 20.7 20.6 20.5 20.4 20.3 20.2 20.1 20.0 20.9 21.0 21.1 21.2 21.2 21.2 21.3 21.4 21.4 21.4 21.3 21.3 21.2 21.2 21.1 21.0 21.0 20.9 20.8 20.6 20.5 20.4 20.3 20.2 20.1 20.0 21.1 21.2 21.3 21.4 21.5 21.5 21.6 21.7 21.7 21.6 21.6 21.5 21.4 21.4 21.3 21.2 21.1 20.9 20.8 20.7 20.6 20.4 20.3 20.2 20.1 20.0 21.4 21.5 21.6 21.7 21.8 21.9 22.0 22.1 22.0 22.0 21.9 21.8 21.7 21.6 21.4 21.3 21.2 21.0 20.9 20.7 20.6 20.4 20.3 20.2 20.1 20.0 21.6 21.7 21.9 22.0 22.1 22.3 22.5 22.6 22.5 22.3 22.2 22.0 21.9 21.8 21.6 21.4 21.2 21.1 20.9 20.8 20.6 20.5 20.3 20.2 20.1 20.1 21.9 22.0 22.2 22.3 22.5 22.7 23.1 23.1 22.9 22.7 22.5 22.4 22.2 22.0 21.8 21.6 21.4 21.2 21.0 20.8 20.6 20.5 20.3 20.2 20.1 20.1 22.2 22.4 22.6 22.8 23.0 23.3 23.8 23.9 23.5 23.3 23.0 22.7 22.5 22.2 21.9 21.7 21.5 21.3 21.1 20.9 20.7 20.5 20.4 20.2 20.1 20.1 22.6 23.0 23.3 23.6 23.7 24.2 25.3 25.4 24.4 23.9 23.5 23.1 22.8 22.4 22.1 21.8 21.6 21.3 21.1 20.9 20.7 20.5 20.4 20.2 20.1 20.1 23.3 24.0 24.7 25.3 26.0 29.6 39.3 38.3 28.3 25.0 24.2 23.6 23.2 22.7 22.3 22.0 21.7 21.4 21.2 20.9 20.7 20.6 20.4 20.3 20.1 20.1 24.3 26.3 31.6 34.8 31.5 38.4 56.2 61.3 50.4 34.3 25.3 24.2 23.5 23.0 22.5 22.1 21.8 21.5 21.2 21.0 20.8 20.6 20.5 20.3 20.1 20.1 26.4 35.3 71.7 93.5 63.3 56.6 75.8 78.6 65.1 39.7 26.4 24.8 23.9 23.3 22.8 22.3 22.0 21.6 21.4 21.1 20.9 20.7 20.5 20.3 20.2 20.1 35.8 61.3 140.0 174.0 108.3 95.0 115.7 93.2 58.2 35.2 27.1 25.5 24.5 23.7 23.1 22.6 22.2 21.8 21.5 21.3 21.0 20.8 20.5 20.3 20.2 20.1 63.2 126.4 219.6 222.0 146.7 182.5 229.6 175.7 90.2 40.7 28.6 26.4 25.2 24.3 23.6 22.9 22.4 21.9 21.6 21.3 21.0 20.7 20.5 20.3 20.2 20.1 90.7 163.7 239.3 219.6 151.4 212.7 281.8 251.9 147.4 50.8 30.2 27.2 25.8 24.7 23.7 23.0 22.4 21.9 21.6 21.3 21.0 20.7 20.5 20.3 20.2 20.1 79.5 137.9 210.7 198.5 118.6 129.2 169.4 170.6 118.6 47.1 29.7 27.0 25.6 24.5 23.6 22.9 22.4 21.9 21.6 21.2 21.0 20.7 20.5 20.3 20.2 20.1 57.0 115.1 196.0 207.3 133.3 85.7 77.6 64.8 51.1 35.4 27.8 26.1 24.9 24.0 23.3 22.7 22.3 21.9 21.6 21.2 21.0 20.8 20.5 20.3 20.2 20.1 42.5 72.4 123.3 161.4 128.5 70.6 49.4 38.4 32.3 28.8 26.3 25.1 24.2 23.5 22.9 22.5 22.1 21.8 21.5 21.2 21.0 20.7 20.5 20.3 20.2 20.1 26.8 30.8 44.9 68.9 63.1 39.3 33.9 31.4 28.1 26.3 25.3 24.4 23.7 23.1 22.7 22.2 21.9 21.6 21.3 21.1 20.9 20.7 20.5 20.3 20.2 20.1 20.0 20.0 20.0 20.0 20.0 20.0 20.0 20.0 20.1 20.1 20.1 20.0 20.0 20.0 20.0 20.0 20.0 20.0 20.0 20.0 20.0 20.0 20.0 20.1 20.1 20.1 20.1 20.1 20.1 20.1 20.1 20.1 20.1 20.1 20.1 20.1 20.1 20.1 20.1 20.1 20.1 20.1 20.1 20.1 20.1 20.1 20.1 20.1 20.1 20.1 20.1 20.1 20.1 20.2 20.2 20.2 20.2 20.2 20.2 20.2 20.2 20.2 20.2 20.2 20.2 20.2 20.2 20.2 20.2 20.2 20.2 20.2 20.2 20.2 20.2 20.2 20.1 20.1 20.2 20.3 20.3 20.3 20.3 20.3 20.3 20.3 20.3 20.3 20.3 20.3 20.3 20.3 20.3 20.3 20.3 20.3 20.3 20.3 20.3 20.3 20.3 20.2 20.1 20.0 20.3 20.4 20.4 20.4 20.4 20.4 20.4 20.4 20.5 20.5 20.4 20.4 20.4 20.4 20.4 20.4 20.4 20.4 20.4 20.4 20.4 20.4 20.3 20.2 20.1 20.0 20.4 20.5 20.5 20.5 20.5 20.5 20.5 20.6 20.6 20.6 20.6 20.5 20.5 20.5 20.6 20.6 20.6 20.5 20.5 20.5 20.5 20.4 20.3 20.2 20.1 20.0 20.5 20.6 20.6 20.7 20.7 20.7 20.7 20.7 20.8 20.8 20.7 20.7 20.7 20.7 20.7 20.7 20.7 20.7 20.6 20.6 20.5 20.4 20.3 20.2 20.1 20.0 20.7 20.7 20.8 20.8 20.8 20.8 20.9 20.9 21.0 21.0 21.0 21.0 20.9 20.9 20.9 20.9 20.8 20.8 20.7 20.7 20.5 20.4 20.3 20.2 20.1 20.0 20.8 20.9 20.9 21.0 21.0 21.0 21.1 21.2 21.2 21.2 21.2 21.2 21.2 21.1 21.1 21.0 21.0 20.9 20.8 20.7 20.6 20.5 20.3 20.2 20.1 20.0 21.0 21.1 21.1 21.2 21.2 21.3 21.4 21.5 21.5 21.5 21.5 21.4 21.4 21.3 21.3 21.2 21.1 21.0 20.9 20.8 20.6 20.5 20.3 20.2 20.1 20.1 21.2 21.3 21.4 21.4 21.5 21.6 21.7 21.8 21.8 21.8 21.7 21.7 21.6 21.5 21.4 21.3 21.2 21.1 21.0 20.8 20.7 20.5 20.3 20.2 20.1 20.1 21.4 21.5 21.6 21.7 21.8 22.0 22.1 22.2 22.2 22.1 22.0 21.9 21.8 21.7 21.6 21.4 21.3 21.2 21.0 20.9 20.7 20.5 20.4 20.2 20.1 20.1 21.7 21.8 21.9 22.0 22.2 22.4 22.6 22.7 22.6 22.5 22.3 22.2 22.0 21.9 21.7 21.6 21.4 21.3 21.1 20.9 20.7 20.5 20.4 20.2 20.1 20.1 22.0 22.1 22.3 22.4 22.5 22.8 23.1 23.2 23.1 22.9 22.7 22.5 22.3 22.1 21.9 21.7 21.5 21.3 21.2 20.9 20.7 20.5 20.4 20.2 20.1 20.1 22.3 22.5 22.7 22.8 23.0 23.3 23.7 23.9 23.6 23.4 23.1 22.8 22.6 22.3 22.1 21.9 21.6 21.4 21.2 21.0 20.8 20.6 20.4 20.3 20.1 20.1 22.6 23.0 23.4 23.6 23.6 24.0 24.6 24.8 24.3 23.9 23.5 23.2 22.9 22.6 22.3 22.0 21.8 21.5 21.3 21.0 20.8 20.6 20.4 20.3 20.1 20.1 23.5 24.0 24.6 25.0 25.4 28.0 33.4 31.7 26.0 24.7 24.1 23.7 23.2 22.8 22.5 22.2 21.9 21.6 21.3 21.0 20.8 20.6 20.4 20.3 20.1 20.1 25.4 26.8 28.6 27.8 29.2 33.7 41.9 48.7 41.9 30.0 24.9 24.1 23.6 23.1 22.7 22.3 22.0 21.7 21.4 21.1 20.9 20.7 20.5 20.3 20.2 20.1 28.3 38.2 53.3 47.5 44.8 54.1 59.7 71.4 58.7 33.6 25.8 24.7 24.0 23.4 22.9 22.5 22.1 21.8 21.5 21.2 21.0 20.7 20.5 20.3 20.2 20.1 40.4 67.6 97.7 87.6 89.4 113.2 107.0 93.6 61.5 33.0 26.9 25.4 24.5 23.8 23.3 22.8 22.3 21.9 21.6 21.3 21.0 20.8 20.6 20.4 20.2 20.1 70.0 140.9 164.0 132.0 168.6 223.6 210.9 156.2 78.8 36.0 28.2 26.2 25.1 24.3 23.6 23.0 22.4 22.0 21.6 21.3 21.0 20.8 20.5 20.3 20.2 20.1 114.0 200.0 194.1 131.7 175.2 238.4 238.2 201.5 107.7 39.1 29.4 26.9 25.6 24.6 23.8 23.1 22.5 22.0 21.6 21.3 21.0 20.7 20.5 20.3 20.2 20.1 123.9 192.6 177.9 105.0 110.1 141.5 138.9 139.0 92.1 37.4 29.2 26.8 25.5 24.5 23.6 23.0 22.5 22.0 21.6 21.3 21.0 20.8 20.5 20.3 20.2 20.1 92.0 153.4 183.8 153.1 119.9 92.9 70.5 62.9 50.8 33.7 27.8 26.0 24.8 24.0 23.4 22.8 22.4 22.0 21.6 21.3 21.0 20.8 20.6 20.3 20.2 20.1 55.0 81.6 124.0 143.7 112.0 65.8 46.7 37.8 33.2 29.5 26.4 25.2 24.3 23.6 23.1 22.6 22.2 21.9 21.5 21.2 21.0 20.8 20.5 20.3 20.2 20.1 28.8 31.0 41.6 55.9 50.7 37.5 34.1 31.0 27.8 26.2 25.4 24.5 23.8 23.3 22.9 22.4 22.1 21.7 21.4 21.2 20.9 20.7 20.5 20.3 20.2 20.1 20.0 20.0 20.0 20.0 20.0 20.0 20.0 20.0 20.0 20.1 20.1 20.0 20.0 20.0 20.0 20.0 20.0 20.0 20.0 20.0 20.0 20.0 20.0 20.1 20.1 20.1 20.1 20.1 20.1 20.1 20.1 20.1 20.1 20.1 20.1 20.1 20.1 20.1 20.1 20.1 20.1 20.1 20.1 20.1 20.1 20.1 20.1 20.1 20.1 20.1 20.1 20.1 20.2 20.2 20.2 20.2 20.2 20.2 20.2 20.2 20.2 20.2 20.2 20.2 20.2 20.2 20.2 20.2 20.2 20.2 20.2 20.2 20.2 20.2 20.2 20.2 20.1 20.1 20.2 20.3 20.3 20.3 20.3 20.3 20.3 20.3 20.3 20.3 20.3 20.3 20.3 20.3 20.3 20.3 20.3 20.3 20.3 20.3 20.4 20.4 20.4 20.3 20.1 20.1 20.3 20.4 20.4 20.4 20.4 20.4 20.4 20.4 20.5 20.5 20.4 20.4 20.4 20.4 20.5 20.5 20.5 20.5 20.5 20.5 20.5 20.5 20.4 20.2 20.1 20.0 20.4 20.5 20.5 20.5 20.5 20.5 20.5 20.6 20.6 20.6 20.6 20.6 20.6 20.6 20.7 20.7 20.7 20.7 20.6 20.6 20.6 20.5 20.4 20.2 20.1 20.0 20.5 20.6 20.6 20.7 20.7 20.7 20.7 20.8 20.8 20.8 20.8 20.8 20.9 20.9 20.9 20.9 20.8 20.8 20.8 20.7 20.6 20.5 20.3 20.2 20.1 20.0 20.7 20.7 20.8 20.8 20.8 20.8 20.9 21.0 21.1 21.1 21.1 21.1 21.1 21.1 21.1 21.0 21.0 20.9 20.9 20.8 20.7 20.5 20.3 20.2 20.1 20.0 20.8 20.9 20.9 21.0 21.0 21.1 21.1 21.3 21.3 21.4 21.4 21.4 21.3 21.3 21.3 21.2 21.1 21.1 21.0 20.8 20.7 20.5 20.4 20.2 20.1 20.1 21.1 21.1 21.2 21.2 21.3 21.4 21.4 21.6 21.6 21.7 21.7 21.6 21.6 21.5 21.4 21.4 21.3 21.2 21.0 20.9 20.7 20.5 20.4 20.2 20.1 20.1 21.3 21.4 21.4 21.5 21.6 21.7 21.8 21.9 22.0 22.0 21.9 21.9 21.8 21.7 21.6 21.5 21.4 21.2 21.1 20.9 20.8 20.6 20.4 20.2 20.1 20.1 21.5 21.6 21.7 21.8 21.9 22.1 22.2 22.3 22.3 22.3 22.2 22.1 22.0 21.9 21.8 21.6 21.5 21.3 21.2 21.0 20.8 20.6 20.4 20.2 20.1 20.1 21.8 21.9 22.0 22.2 22.3 22.4 22.7 22.8 22.7 22.7 22.6 22.4 22.2 22.1 21.9 21.8 21.6 21.4 21.2 21.0 20.8 20.6 20.4 20.2 20.1 20.1 22.1 22.3 22.4 22.5 22.7 22.9 23.2 23.3 23.2 23.1 22.9 22.7 22.5 22.3 22.1 21.9 21.7 21.5 21.3 21.1 20.8 20.6 20.4 20.2 20.1 20.1 22.3 22.6 22.9 22.9 23.1 23.4 23.7 23.9 23.8 23.5 23.2 23.0 22.7 22.5 22.3 22.0 21.8 21.6 21.4 21.1 20.8 20.6 20.4 20.3 20.1 20.1 22.9 23.4 23.6 23.6 23.6 23.9 24.2 24.5 24.3 24.0 23.7 23.3 23.0 22.7 22.5 22.2 21.9 21.7 21.4 21.1 20.8 20.6 20.4 20.3 20.1 20.1 23.8 24.5 24.8 24.9 25.0 25.8 27.2 26.8 25.4 24.7 24.2 23.7 23.3 23.0 22.7 22.4 22.1 21.8 21.5 21.1 20.9 20.6 20.5 20.3 20.1 20.1 25.8 28.7 31.0 32.2 31.7 29.4 31.7 36.6 33.4 26.3 24.8 24.2 23.7 23.2 22.9 22.5 22.2 21.9 21.5 21.2 20.9 20.7 20.5 20.3 20.2 20.1 29.4 43.8 52.3 54.4 53.2 42.6 45.6 59.4 50.3 29.5 25.7 24.8 24.1 23.6 23.1 22.7 22.3 22.0 21.6 21.3 21.0 20.7 20.5 20.3 20.2 20.1 40.4 79.6 94.6 100.1 109.2 92.0 86.5 88.7 65.0 33.3 27.4 25.5 24.6 24.0 23.4 22.9 22.4 22.0 21.6 21.3 21.0 20.8 20.6 20.4 20.2 20.1 65.2 134.3 149.4 163.0 201.8 196.5 186.8 145.5 79.3 35.9 28.9 26.5 25.2 24.4 23.7 23.1 22.6 22.1 21.7 21.3 21.0 20.8 20.5 20.3 20.2 20.1 109.6 173.2 158.6 160.8 201.6 209.0 220.5 177.7 90.2 36.9 29.5 27.1 25.6 24.7 23.9 23.2 22.7 22.1 21.7 21.3 21.0 20.7 20.5 20.3 20.1 20.1 143.0 177.7 132.2 112.2 128.9 123.1 134.3 128.8 80.5 36.7 29.0 26.9 25.5 24.6 23.8 23.1 22.6 22.1 21.7 21.3 21.0 20.7 20.5 20.3 20.1 20.1 111.5 135.0 133.9 124.4 112.5 85.6 73.0 70.4 58.0 36.6 27.7 26.2 25.0 24.3 23.6 23.0 22.5 22.0 21.7 21.3 21.0 20.8 20.5 20.3 20.2 20.1 53.4 65.7 93.9 98.6 78.4 60.6 51.1 44.1 39.2 32.0 26.4 25.4 24.5 23.9 23.3 22.8 22.4 22.0 21.6 21.3 21.0 20.8 20.5 20.3 20.2 20.1 27.0 31.2 36.8 37.7 34.9 35.1 35.6 33.2 29.4 26.4 25.4 24.8 24.2 23.6 23.1 22.7 22.3 21.9 21.5 21.2 20.9 20.7 20.5 20.3 20.2 20.1 20.0 20.0 20.0 20.0 20.0 20.0 20.0 20.1 20.1 20.1 20.1 20.1 20.0 20.0 20.0 20.0 20.0 20.0 20.0 20.0 20.0 20.1 20.1 20.1 20.1 20.1 20.1 20.1 20.1 20.1 20.1 20.1 20.1 20.1 20.1 20.1 20.1 20.1 20.1 20.1 20.1 20.1 20.1 20.1 20.1 20.1 20.1 20.1 20.1 20.2 20.1 20.1 20.2 20.2 20.2 20.2 20.2 20.2 20.2 20.2 20.2 20.2 20.2 20.2 20.2 20.2 20.2 20.2 20.2 20.2 20.2 20.2 20.2 20.3 20.3 20.3 20.2 20.1 20.2 20.3 20.3 20.3 20.3 20.3 20.3 20.3 20.4 20.4 20.3 20.4 20.4 20.3 20.3 20.4 20.4 20.4 20.4 20.4 20.4 20.4 20.4 20.3 20.1 20.1 20.3 20.4 20.4 20.4 20.4 20.4 20.4 20.5 20.5 20.5 20.5 20.5 20.5 20.5 20.5 20.6 20.6 20.6 20.6 20.6 20.6 20.5 20.4 20.3 20.1 20.0 20.4 20.5 20.5 20.5 20.6 20.5 20.6 20.6 20.7 20.7 20.7 20.7 20.8 20.8 20.8 20.8 20.8 20.8 20.8 20.7 20.7 20.6 20.4 20.2 20.1 20.0 20.5 20.6 20.6 20.7 20.7 20.7 20.7 20.8 20.9 20.9 20.9 21.0 21.0 21.0 21.0 21.0 21.0 20.9 20.9 20.8 20.7 20.6 20.4 20.2 20.1 20.1 20.7 20.7 20.8 20.8 20.8 20.9 21.0 21.1 21.2 21.2 21.2 21.3 21.3 21.2 21.2 21.2 21.1 21.1 21.0 20.9 20.8 20.6 20.4 20.2 20.1 20.1 20.9 20.9 21.0 21.0 21.1 21.2 21.3 21.4 21.5 21.5 21.5 21.5 21.5 21.4 21.4 21.3 21.3 21.2 21.1 21.0 20.8 20.6 20.4 20.2 20.1 20.1 21.1 21.2 21.2 21.3 21.4 21.6 21.7 21.8 21.8 21.8 21.8 21.8 21.7 21.6 21.6 21.5 21.4 21.3 21.2 21.0 20.9 20.7 20.4 20.2 20.1 20.1 21.3 21.4 21.5 21.6 21.8 22.0 22.1 22.1 22.2 22.2 22.1 22.0 21.9 21.8 21.7 21.6 21.5 21.4 21.3 21.1 20.9 20.7 20.4 20.2 20.1 20.1 21.6 21.7 21.8 22.0 22.1 22.3 22.5 22.5 22.6 22.5 22.4 22.3 22.1 22.0 21.9 21.8 21.6 21.5 21.3 21.2 20.9 20.7 20.4 20.2 20.1 20.1 21.8 22.0 22.1 22.3 22.4 22.6 22.8 22.9 22.9 22.9 22.7 22.5 22.4 22.2 22.1 21.9 21.8 21.6 21.4 21.2 21.0 20.7 20.4 20.2 20.1 20.1 22.1 22.3 22.5 22.6 22.8 23.1 23.3 23.4 23.4 23.2 23.0 22.8 22.6 22.5 22.3 22.1 21.9 21.7 21.5 21.2 21.0 20.7 20.4 20