<?xml version="1.0"?>
<VTKFile type="RectilinearGrid" version="1.0" byte_order="LittleEndian" header_type="UInt64">
<RectilinearGrid WholeExtent="25 50 0 25 0 15">
<Piece Extent="25 50 0 25 0 15">
<Coordinates>
<DataArray type="Float64" Name="Array X-Axis" format="ascii" RangeMin="15.0" RangeMax="30.0">
15.0 15.6 16.2 16.8 17.4 18.0 18.6 19.2 19.8 20.4 21.0 21.6 22.2 22.8 23.4 24.0 24.6 25.2 25.8 26.4 27.0 27.6 28.2 28.8 29.4 30.0 
</DataArray>
<DataArray type="Float64" Name="Array Y-Axis" format="ascii" RangeMin="0.0" RangeMax="15.0">
0.0 0.6 1.2 1.8 2.4 3.0 3.6 4.2 4.8 5.4 6.0 6.6 7.2 7.8 8.4 9.0 9.6 10.2 10.8 11.4 12.0 12.6 13.2 13.8 14.4 15.0 
</DataArray>
<DataArray type="Float64" Name="Array Z-Axis" format="ascii" RangeMin="0.0" RangeMax="9.0">
0.0 0.6 1.2 1.8 2.4 3.0 3.6 4.2 4.8 5.4 6.0 6.6 7.2 7.8 8.4 9.0 
</DataArray>
</Coordinates>
<PointData>
<DataArray Name="TEMPERATURE" NumberOfComponents="1" type="Float64" format="ascii">
20.0 20.0 20.0 20.0 20.0 20.0 20.1 20.1 20.1 20.1 20.1 20.1 20.0 20.0 20.0 20.0 20.0 20.0 20.0 20.0 20.0 20.0 20.0 20.0 20.0 20.0 20.1 20.1 20.1 20.1 20.1 20.1 20.1 20.1 20.1 20.1 20.1 20.1 20.1 20.1 20.1 20.1 20.1 20.1 20.1 20.1 20.1 20.1 20.1 20.1 20.0 20.0 20.1 20.1 20.2 20.2 20.2 20.2 20.2 20.2 20.2 20.2 20.2 20.2 20.2 20.1 20.1 20.1 20.1 20.1 20.1 20.1 20.1 20.1 20.1 20.1 20.1 20.0 20.2 20.2 20.3 20.3 20.3 20.3 20.3 20.3 20.3 20.3 20.3 20.3 20.2 20.2 20.2 20.2 20.2 20.2 20.2 20.2 20.2 20.2 20.2 20.1 20.1 20.0 20.3 20.3 20.4 20.4 20.4 20.4 20.4 20.4 20.4 20.5 20.4 20.3 20.3 20.3 20.3 20.3 20.3 20.3 20.3 20.3 20.3 20.3 20.2 20.1 20.1 20.0 20.4 20.4 20.5 20.5 20.5 20.5 20.5 20.5 20.6 20.6 20.5 20.4 20.4 20.4 20.4 20.4 20.4 20.4 20.3 20.4 20.4 20.3 20.2 20.1 20.1 20.0 20.5 20.5 20.6 20.7 20.7 20.7 20.7 20.7 20.7 20.7 20.6 20.5 20.5 20.5 20.5 20.5 20.5 20.5 20.5 20.5 20.4 20.3 20.2 20.1 20.1 20.0 20.6 20.7 20.8 20.8 20.8 20.8 20.8 20.8 20.8 20.8 20.7 20.7 20.6 20.6 20.6 20.6 20.6 20.6 20.6 20.5 20.4 20.3 20.2 20.1 20.1 20.0 20.7 20.8 20.9 21.0 21.0 21.0 21.0 21.0 21.0 21.0 20.9 20.8 20.8 20.8 20.7 20.7 20.7 20.8 20.7 20.5 20.4 20.3 20.2 20.2 20.1 20.0 20.9 20.9 21.1 21.1 21.1 21.2 21.2 21.2 21.2 21.1 21.0 21.0 20.9 20.9 20.9 20.9 20.9 20.8 20.6 20.5 20.4 20.3 20.2 20.2 20.1 20.0 21.0 21.1 21.3 21.4 21.4 21.4 21.4 21.4 21.4 21.3 21.2 21.1 21.1 21.1 21.1 21.1 21.0 20.8 20.6 20.5 20.4 20.4 20.3 20.2 20.1 20.0 21.2 21.3 21.5 21.6 21.7 21.7 21.7 21.7 21.7 21.6 21.4 21.3 21.3 21.3 21.3 21.2 21.0 20.8 20.7 20.6 20.5 20.4 20.3 20.2 20.1 20.1 21.4 21.5 21.7 21.9 22.0 22.0 22.1 22.1 22.1 21.9 21.7 21.6 21.6 21.6 21.5 21.2 21.0 20.9 20.7 20.6 20.5 20.4 20.3 20.2 20.1 20.1 21.6 21.8 22.0 22.2 22.4 22.5 22.5 22.5 22.4 22.2 22.0 21.9 21.9 21.8 21.5 21.2 21.1 20.9 20.8 20.7 20.5 20.4 20.3 20.2 20.1 20.1 21.9 22.0 22.3 22.6 22.8 23.0 23.1 23.0 22.8 22.5 22.4 22.4 22.2 21.9 21.6 21.3 21.2 21.0 20.8 20.7 20.6 20.4 20.3 20.2 20.1 20.1 22.2 22.4 22.7 23.1 23.4 23.6 23.7 23.6 23.4 23.1 23.0 22.7 22.3 21.9 21.7 21.4 21.2 21.0 20.9 20.7 20.6 20.5 20.4 20.2 20.1 20.1 22.6 22.8 23.2 23.7 24.1 24.6 24.7 24.5 24.3 23.9 23.5 23.0 22.4 22.1 21.8 21.5 21.3 21.1 20.9 20.8 20.6 20.5 20.4 20.3 20.1 20.1 23.0 23.4 23.8 24.4 25.0 25.8 26.1 25.7 25.1 24.6 23.9 23.2 22.6 22.2 21.9 21.6 21.4 21.2 21.0 20.9 20.7 20.6 20.4 20.3 20.2 20.1 23.6 24.0 24.5 25.3 26.1 27.3 27.7 27.1 26.2 25.3 24.3 23.5 22.9 22.5 22.1 21.8 21.6 21.4 21.2 21.0 20.9 20.7 20.5 20.4 20.2 20.1 24.3 24.8 25.8 27.6 29.4 31.6 31.9 29.8 28.0 26.3 25.0 24.0 23.3 22.8 22.4 22.1 21.8 21.6 21.3 21.1 20.9 20.7 20.6 20.4 20.2 20.1 25.2 25.9 27.8 32.0 34.3 35.1 35.2 32.7 30.3 27.5 26.0 24.7 23.8 23.2 22.7 22.4 22.0 21.8 21.4 21.1 20.9 20.7 20.5 20.3 20.2 20.1 26.1 27.2 29.0 33.2 36.1 20.0 20.0 37.1 33.4 28.5 26.7 25.3 24.2 23.5 23.0 22.5 22.1 21.8 21.5 21.1 20.9 20.7 20.5 20.3 20.2 20.1 26.5 27.9 29.3 31.9 33.9 20.0 20.0 40.9 35.6 28.7 26.5 25.4 24.3 23.5 23.0 22.5 22.0 21.7 21.4 21.2 20.9 20.7 20.5 20.3 20.2 20.1 25.8 27.3 29.2 31.9 34.5 38.7 37.3 36.3 33.3 27.5 25.7 24.9 24.1 23.3 22.8 22.3 21.9 21.6 21.4 21.1 20.9 20.7 20.5 20.3 20.2 20.1 24.7 25.7 27.4 29.3 31.6 34.3 33.6 30.7 28.3 25.8 24.7 24.1 23.6 22.9 22.5 22.1 21.7 21.5 21.3 21.1 20.9 20.7 20.5 20.3 20.2 20.1 23.1 24.5 25.2 26.4 27.9 29.3 29.2 27.3 25.6 24.7 23.9 23.4 22.9 22.5 22.1 21.8 21.5 21.4 21.2 21.0 20.8 20.6 20.4 20.3 20.1 20.1 20.0 20.0 20.0 20.0 20.0 20.0 20.1 20.1 20.1 20.1 20.1 20.0 20.0 20.0 20.0 20.0 20.0 20.0 20.0 20.0 20.0 20.0 20.0 20.0 20.0 20.0 20.1 20.1 20.1 20.1 20.1 20.1 20.1 20.1 20.1 20.1 20.1 20.1 20.1 20.1 20.1 20.1 20.1 20.1 20.1 20.1 20.0 20.0 20.0 20.1 20.0 20.0 20.1 20.1 20.1 20.2 20.2 20.2 20.2 20.2 20.2 20.2 20.2 20.2 20.1 20.1 20.1 20.1 20.1 20.1 20.1 20.1 20.1 20.1 20.1 20.1 20.1 20.0 20.2 20.2 20.2 20.3 20.3 20.3 20.3 20.3 20.3 20.3 20.3 20.2 20.2 20.2 20.2 20.2 20.2 20.2 20.2 20.2 20.2 20.2 20.2 20.1 20.1 20.0 20.3 20.3 20.3 20.4 20.4 20.4 20.4 20.4 20.4 20.4 20.4 20.3 20.3 20.3 20.3 20.3 20.3 20.2 20.2 20.3 20.3 20.3 20.2 20.1 20.1 20.0 20.4 20.4 20.4 20.5 20.5 20.5 20.5 20.5 20.5 20.5 20.5 20.4 20.4 20.4 20.4 20.4 20.3 20.3 20.3 20.4 20.4 20.3 20.2 20.1 20.1 20.0 20.5 20.5 20.6 20.6 20.6 20.6 20.6 20.6 20.7 20.6 20.6 20.5 20.5 20.5 20.5 20.4 20.4 20.4 20.5 20.5 20.4 20.3 20.2 20.1 20.1 20.0 20.6 20.6 20.7 20.8 20.8 20.8 20.8 20.8 20.8 20.8 20.7 20.6 20.6 20.6 20.6 20.5 20.6 20.6 20.6 20.5 20.4 20.3 20.2 20.1 20.1 20.0 20.7 20.8 20.9 20.9 20.9 20.9 21.0 21.0 21.0 20.9 20.8 20.8 20.7 20.7 20.7 20.7 20.7 20.8 20.6 20.5 20.4 20.3 20.2 20.1 20.1 20.0 20.8 20.9 21.0 21.1 21.1 21.2 21.2 21.2 21.2 21.1 21.0 20.9 20.9 20.9 20.9 20.9 20.9 20.8 20.6 20.5 20.4 20.3 20.2 20.1 20.1 20.0 21.0 21.1 21.2 21.3 21.4 21.4 21.4 21.4 21.4 21.3 21.2 21.1 21.1 21.1 21.1 21.1 21.0 20.8 20.6 20.5 20.4 20.3 20.2 20.2 20.1 20.0 21.2 21.3 21.4 21.6 21.7 21.7 21.7 21.8 21.7 21.6 21.4 21.3 21.3 21.3 21.3 21.2 21.0 20.8 20.6 20.5 20.4 20.3 20.3 20.2 20.1 20.0 21.4 21.5 21.7 21.9 22.0 22.1 22.1 22.1 22.1 21.9 21.7 21.6 21.6 21.6 21.5 21.2 21.0 20.8 20.7 20.6 20.5 20.4 20.3 20.2 20.1 20.0 21.6 21.8 22.0 22.2 22.4 22.6 22.7 22.6 22.4 22.2 22.0 22.0 22.0 21.8 21.5 21.2 21.0 20.9 20.8 20.6 20.5 20.4 20.3 20.2 20.1 20.1 21.9 22.1 22.3 22.7 23.0 23.2 23.3 23.1 22.8 22.6 22.5 22.4 22.2 21.9 21.6 21.3 21.1 21.0 20.8 20.7 20.5 20.4 20.3 20.2 20.1 20.1 22.3 22.5 22.8 23.2 23.6 23.9 24.0 23.9 23.5 23.2 23.0 22.8 22.4 21.9 21.6 21.4 21.2 21.0 20.8 20.7 20.6 20.4 20.3 20.2 20.1 20.1 22.7 23.0 23.4 23.9 24.4 25.1 25.2 24.8 24.4 24.0 23.6 23.1 22.5 22.1 21.8 21.5 21.3 21.1 20.9 20.7 20.6 20.5 20.4 20.2 20.1 20.1 23.2 23.6 24.1 24.8 25.6 26.5 26.9 26.2 25.3 24.7 24.0 23.3 22.7 22.3 22.0 21.6 21.4 21.2 21.0 20.8 20.7 20.6 20.4 20.3 20.1 20.1 23.8 24.2 25.0 26.3 27.4 28.4 29.1 28.2 26.7 25.5 24.5 23.6 23.0 22.6 22.2 21.8 21.6 21.4 21.2 21.0 20.8 20.7 20.5 20.4 20.2 20.1 24.4 25.1 26.6 30.6 33.5 35.6 36.0 33.9 30.5 26.7 25.2 24.2 23.4 22.9 22.5 22.1 21.8 21.6 21.3 21.1 20.9 20.7 20.5 20.4 20.2 20.1 25.3 26.2 28.5 35.9 59.9 120.2 123.8 64.6 37.3 28.6 26.3 25.0 24.0 23.4 22.8 22.4 22.0 21.7 21.4 21.1 20.9 20.7 20.5 20.3 20.2 20.1 26.5 27.8 30.1 37.2 80.3 269.0 356.5 147.2 44.7 31.0 27.3 25.7 24.5 23.7 23.1 22.5 22.1 21.8 21.4 21.1 20.9 20.7 20.5 20.3 20.2 20.1 27.4 28.9 30.5 35.6 64.5 240.1 394.8 180.1 46.3 31.0 27.2 25.8 24.6 23.7 23.0 22.5 22.0 21.7 21.4 21.1 20.9 20.7 20.5 20.3 20.1 20.1 26.5 28.3 30.9 35.6 52.5 134.6 180.0 99.1 41.2 28.5 26.0 25.1 24.2 23.4 22.8 22.4 21.9 21.6 21.4 21.1 20.9 20.7 20.5 20.3 20.2 20.1 24.9 26.3 28.9 32.1 39.5 63.1 60.8 39.3 32.5 26.2 24.9 24.2 23.6 23.0 22.5 22.1 21.7 21.5 21.3 21.1 20.9 20.7 20.5 20.3 20.2 20.1 23.2 24.8 25.7 27.0 28.8 31.6 31.4 28.3 26.3 25.0 24.2 23.5 23.0 22.5 22.2 21.8 21.5 21.3 21.1 21.0 20.8 20.6 20.4 20.3 20.1 20.1 20.0 20.0 20.0 20.0 20.0 20.0 20.0 20.1 20.1 20.1 20.0 20.0 20.0 20.0 20.0 20.0 20.0 20.0 20.0 20.0 20.0 20.0 20.0 20.0 20.0 20.0 20.1 20.1 20.1 20.1 20.1 20.1 20.1 20.1 20.1 20.1 20.1 20.1 20.1 20.1 20.1 20.1 20.0 20.0 20.0 20.0 20.0 20.0 20.0 20.0 20.0 20.0 20.1 20.1 20.1 20.1 20.2 20.2 20.2 20.2 20.2 20.2 20.2 20.1 20.1 20.1 20.1 20.1 20.1 20.1 20.1 20.1 20.1 20.1 20.1 20.1 20.0 20.0 20.2 20.2 20.2 20.2 20.2 20.2 20.2 20.3 20.3 20.3 20.2 20.2 20.2 20.2 20.2 20.2 20.2 20.2 20.1 20.1 20.2 20.2 20.2 20.1 20.0 20.0 20.3 20.3 20.3 20.3 20.3 20.3 20.3 20.4 20.4 20.4 20.3 20.3 20.3 20.2 20.2 20.2 20.2 20.2 20.2 20.2 20.3 20.3 20.2 20.1 20.0 20.0 20.3 20.4 20.4 20.4 20.5 20.5 20.5 20.5 20.5 20.5 20.4 20.4 20.3 20.3 20.3 20.3 20.3 20.3 20.3 20.4 20.4 20.3 20.2 20.1 20.0 20.0 20.4 20.5 20.5 20.6 20.6 20.6 20.6 20.6 20.6 20.6 20.5 20.5 20.4 20.4 20.4 20.4 20.4 20.4 20.5 20.5 20.4 20.3 20.2 20.1 20.0 20.0 20.5 20.6 20.7 20.7 20.7 20.7 20.8 20.8 20.8 20.7 20.6 20.6 20.5 20.5 20.5 20.5 20.5 20.6 20.6 20.5 20.3 20.2 20.2 20.1 20.0 20.0 20.7 20.7 20.8 20.9 20.9 20.9 20.9 21.0 21.0 20.9 20.8 20.7 20.7 20.7 20.6 20.7 20.7 20.7 20.6 20.4 20.3 20.2 20.2 20.1 20.1 20.0 20.8 20.9 21.0 21.1 21.2 21.2 21.2 21.2 21.2 21.1 20.9 20.9 20.8 20.8 20.9 20.9 20.9 20.8 20.6 20.4 20.3 20.2 20.2 20.1 20.1 20.0 21.0 21.1 21.2 21.3 21.4 21.5 21.5 21.5 21.4 21.3 21.1 21.1 21.0 21.1 21.1 21.1 21.0 20.7 20.5 20.4 20.3 20.3 20.2 20.1 20.1 20.0 21.2 21.3 21.4 21.6 21.7 21.8 21.8 21.8 21.7 21.5 21.4 21.3 21.3 21.3 21.3 21.2 20.9 20.7 20.6 20.5 20.4 20.3 20.2 20.1 20.1 20.0 21.4 21.5 21.7 21.9 22.1 22.2 22.3 22.2 22.1 21.8 21.7 21.7 21.7 21.6 21.5 21.2 20.9 20.7 20.6 20.5 20.4 20.3 20.2 20.1 20.1 20.0 21.6 21.8 22.1 22.3 22.6 22.8 22.9 22.8 22.5 22.2 22.1 22.1 22.0 21.8 21.5 21.2 21.0 20.8 20.7 20.6 20.4 20.3 20.3 20.2 20.1 20.0 22.0 22.2 22.5 22.8 23.2 23.5 23.6 23.4 23.0 22.8 22.6 22.5 22.3 21.9 21.6 21.3 21.1 20.9 20.7 20.6 20.5 20.4 20.3 20.2 20.1 20.0 22.4 22.7 23.0 23.4 23.9 24.4 24.7 24.4 23.8 23.4 23.2 22.9 22.5 22.0 21.7 21.4 21.2 21.0 20.8 20.6 20.5 20.4 20.3 20.2 20.1 20.0 22.9 23.3 23.8 24.5 25.1 26.0 26.4 25.7 24.8 24.2 23.8 23.2 22.7 22.2 21.8 21.5 21.3 21.0 20.9 20.7 20.5 20.4 20.3 20.2 20.1 20.1 23.5 24.0 24.9 28.1 29.3 28.7 29.6 28.0 25.9 25.1 24.3 23.6 22.9 22.4 22.0 21.7 21.4 21.1 20.9 20.8 20.6 20.5 20.4 20.3 20.1 20.1 24.3 25.1 27.5 35.9 37.7 35.0 39.1 37.4 30.5 26.5 25.0 24.0 23.3 22.7 22.2 21.9 21.6 21.3 21.1 20.9 20.8 20.6 20.5 20.3 20.2 20.1 25.0 26.9 34.2 49.2 54.0 63.3 69.9 52.8 36.2 27.9 25.7 24.6 23.7 23.1 22.6 22.1 21.8 21.5 21.3 21.0 20.8 20.6 20.5 20.3 20.2 20.1 25.8 28.1 37.1 61.7 111.5 205.3 208.6 103.4 44.7 30.4 27.0 25.6 24.4 23.6 23.0 22.4 22.0 21.7 21.4 21.1 20.8 20.6 20.5 20.3 20.2 20.1 27.0 29.1 35.2 62.2 159.6 325.2 381.1 234.9 85.7 39.0 28.6 26.5 25.1 24.1 23.3 22.6 22.1 21.7 21.4 21.1 20.9 20.6 20.5 20.3 20.1 20.1 28.1 30.3 34.2 53.1 144.6 307.4 420.8 313.4 121.5 46.3 28.6 26.5 25.1 24.1 23.3 22.6 22.1 21.7 21.4 21.1 20.9 20.7 20.4 20.2 20.1 20.1 27.1 29.3 33.9 47.1 97.9 209.7 276.1 199.9 88.4 38.1 26.9 25.5 24.5 23.7 23.0 22.5 22.0 21.6 21.3 21.1 20.9 20.7 20.4 20.3 20.1 20.1 25.3 27.1 31.3 38.9 50.9 84.8 93.7 64.6 41.1 27.6 25.4 24.5 23.8 23.1 22.6 22.2 21.8 21.5 21.2 21.0 20.8 20.6 20.4 20.3 20.1 20.1 23.4 25.5 27.0 29.0 31.2 34.4 34.7 30.6 27.5 25.8 24.7 23.9 23.2 22.7 22.2 21.9 21.5 21.3 21.1 20.9 20.7 20.5 20.4 20.3 20.1 20.1 20.0 20.0 20.0 20.0 20.0 20.0 20.0 20.0 20.0 20.0 20.0 20.0 20.0 20.0 20.0 20.0 20.0 20.0 20.0 20.0 20.0 20.0 20.0 20.0 20.0 20.0 20.1 20.1 20.1 20.1 20.1 20.1 20.1 20.1 20.1 20.1 20.1 20.1 20.1 20.1 20.1 20.0 20.0 20.0 20.0 20.0 20.0 20.0 20.0 20.0 20.0 20.0 20.1 20.1 20.1 20.2 20.2 20.2 20.2 20.2 20.2 20.2 20.2 20.1 20.1 20.1 20.1 20.1 20.1 20.1 20.1 20.1 20.1 20.1 20.1 20.1 20.0 20.0 20.2 20.2 20.2 20.2 20.3 20.2 20.2 20.3 20.3 20.3 20.2 20.2 20.2 20.2 20.2 20.2 20.2 20.1 20.1 20.1 20.2 20.2 20.2 20.1 20.0 20.0 20.3 20.3 20.3 20.3 20.4 20.4 20.3 20.4 20.4 20.4 20.3 20.3 20.3 20.2 20.2 20.2 20.2 20.2 20.2 20.2 20.3 20.3 20.2 20.1 20.0 20.0 20.3 20.4 20.4 20.5 20.5 20.5 20.5 20.5 20.5 20.5 20.4 20.4 20.3 20.3 20.3 20.3 20.3 20.3 20.3 20.4 20.4 20.3 20.2 20.1 20.0 20.0 20.4 20.5 20.6 20.6 20.6 20.6 20.6 20.7 20.6 20.6 20.5 20.5 20.4 20.4 20.4 20.4 20.4 20.4 20.5 20.5 20.4 20.2 20.2 20.1 20.0 20.0 20.6 20.6 20.7 20.8 20.8 20.8 20.8 20.8 20.8 20.7 20.6 20.6 20.6 20.5 20.5 20.5 20.6 20.6 20.6 20.5 20.3 20.2 20.1 20.1 20.0 20.0 20.7 20.8 20.8 20.9 21.0 21.0 21.0 21.0 21.0 20.9 20.8 20.7 20.7 20.7 20.7 20.7 20.7 20.7 20.6 20.4 20.3 20.2 20.2 20.1 20.0 20.0 20.8 20.9 21.0 21.1 21.2 21.2 21.2 21.3 21.2 21.1 21.0 20.9 20.9 20.9 20.9 20.9 20.9 20.8 20.6 20.4 20.3 20.2 20.2 20.1 20.1 20.0 21.0 21.1 21.2 21.4 21.5 21.5 21.5 21.6 21.5 21.3 21.2 21.1 21.1 21.1 21.1 21.1 20.9 20.7 20.6 20.4 20.3 20.3 20.2 20.1 20.1 20.0 21.2 21.3 21.4 21.6 21.8 21.8 21.9 21.9 21.7 21.6 21.4 21.4 21.4 21.4 21.3 21.2 20.9 20.7 20.6 20.5 20.4 20.3 20.2 20.1 20.1 20.0 21.4 21.6 21.7 22.0 22.2 22.3 22.4 22.3 22.1 21.9 21.7 21.7 21.7 21.7 21.5 21.2 20.9 20.8 20.6 20.5 20.4 20.3 20.2 20.1 20.1 20.0 21.7 21.9 22.1 22.4 22.7 22.8 23.0 22.9 22.6 22.3 22.2 22.1 22.1 21.9 21.6 21.2 21.0 20.8 20.7 20.6 20.5 20.4 20.3 20.2 20.1 20.0 22.1 22.3 22.5 22.9 23.2 23.5 23.7 23.6 23.1 22.9 22.8 22.6 22.3 22.0 21.6 21.3 21.1 20.9 20.8 20.6 20.5 20.4 20.3 20.2 20.1 20.0 22.5 22.9 23.3 23.7 24.1 24.5 24.9 24.7 24.0 23.6 23.4 23.0 22.6 22.1 21.7 21.4 21.2 21.0 20.8 20.7 20.5 20.4 20.3 20.2 20.1 20.0 23.1 23.7 25.9 26.7 25.9 27.1 27.7 26.6 25.3 24.5 24.0 23.4 22.8 22.3 21.9 21.6 21.3 21.1 20.9 20.7 20.6 20.4 20.3 20.2 20.1 20.1 23.8 25.1 32.9 37.5 32.4 31.3 32.9 30.2 26.9 25.5 24.6 23.8 23.1 22.5 22.1 21.7 21.4 21.2 21.0 20.8 20.6 20.5 20.4 20.2 20.1 20.1 26.4 30.7 45.5 57.7 47.4 42.7 50.1 45.4 33.6 27.3 25.4 24.4 23.5 22.8 22.3 21.9 21.6 21.3 21.1 20.9 20.7 20.6 20.4 20.3 20.1 20.1 28.3 39.3 63.9 85.1 76.0 95.6 122.9 90.8 48.1 29.2 26.3 25.0 24.0 23.3 22.7 22.2 21.9 21.5 21.3 21.0 20.8 20.6 20.5 20.3 20.2 20.1 28.1 39.3 70.1 121.0 163.9 244.6 276.9 173.1 73.1 35.7 27.7 26.0 24.8 23.9 23.2 22.5 22.1 21.7 21.4 21.1 20.8 20.6 20.5 20.3 20.2 20.1 28.4 35.2 62.6 137.2 251.7 375.9 416.2 309.8 149.4 52.8 30.0 27.3 25.6 24.4 23.5 22.8 22.2 21.8 21.4 21.1 20.9 20.6 20.5 20.3 20.1 20.1 29.1 34.5 53.8 117.1 245.5 384.1 454.1 401.3 226.6 74.6 30.7 27.4 25.6 24.4 23.5 22.9 22.3 21.8 21.4 21.1 20.9 20.6 20.5 20.3 20.1 20.1 28.1 32.1 47.1 86.7 153.2 239.0 297.1 269.9 161.9 60.9 28.5 26.2 24.9 23.9 23.2 22.7 22.2 21.7 21.4 21.1 20.9 20.7 20.5 20.3 20.1 20.1 25.7 28.5 38.0 56.6 65.5 75.9 92.4 84.6 55.0 31.8 26.2 25.0 24.1 23.3 22.8 22.3 21.9 21.6 21.3 21.0 20.8 20.6 20.5 20.3 20.1 20.1 23.6 26.0 28.0 34.8 37.9 35.8 35.4 32.4 28.9 26.6 25.2 24.3 23.5 22.9 22.4 22.0 21.6 21.4 21.1 20.9 20.7 20.6 20.4 20.3 20.1 20.1 20.0 20.0 20.0 20.0 20.0 20.0 20.1 20.1 20.0 20.0 20.0 20.0 20.0 20.0 20.0 20.0 20.0 20.0 20.0 20.0 20.0 20.0 20.0 20.0 20.0 20.0 20.1 20.1 20.1 20.1 20.1 20.1 20.1 20.1 20.1 20.1 20.1 20.1 20.1 20.1 20.1 20.1 20.1 20.1 20.1 20.0 20.0 20.0 20.0 20.1 20.0 20.0 20.1 20.1 20.2 20.2 20.2 20.2 20.2 20.2 20.2 20.2 20.2 20.1 20.1 20.1 20.1 20.1 20.1 20.1 20.1 20.1 20.1 20.1 20.1 20.1 20.0 20.0 20.2 20.2 20.3 20.3 20.3 20.3 20.3 20.3 20.3 20.3 20.3 20.2 20.2 20.2 20.2 20.2 20.2 20.2 20.2 20.2 20.2 20.2 20.2 20.1 20.0 20.0 20.3 20.3 20.4 20.4 20.4 20.4 20.4 20.4 20.4 20.4 20.4 20.3 20.3 20.3 20.3 20.3 20.3 20.3 20.3 20.3 20.3 20.3 20.2 20.1 20.0 20.0 20.4 20.4 20.5 20.5 20.5 20.5 20.5 20.5 20.6 20.5 20.5 20.4 20.4 20.4 20.4 20.4 20.4 20.4 20.4 20.4 20.4 20.3 20.2 20.1 20.0 20.0 20.5 20.6 20.6 20.7 20.7 20.6 20.7 20.7 20.7 20.7 20.6 20.5 20.5 20.5 20.5 20.5 20.5 20.5 20.5 20.5 20.4 20.3 20.2 20.1 20.1 20.0 20.6 20.7 20.8 20.8 20.8 20.8 20.8 20.9 20.9 20.8 20.7 20.7 20.7 20.6 20.6 20.6 20.6 20.6 20.6 20.5 20.4 20.3 20.2 20.1 20.1 20.0 20.8 20.8 20.9 21.0 21.0 21.0 21.1 21.1 21.1 21.0 20.9 20.8 20.8 20.8 20.8 20.8 20.8 20.7 20.6 20.5 20.4 20.3 20.2 20.1 20.1 20.0 20.9 21.0 21.1 21.2 21.2 21.3 21.3 21.3 21.3 21.2 21.1 21.0 21.0 21.0 20.9 20.9 20.9 20.8 20.6 20.5 20.4 20.3 20.2 20.1 20.1 20.0 21.1 21.2 21.3 21.4 21.5 21.5 21.6 21.6 21.5 21.4 21.3 21.3 21.2 21.1 21.1 21.1 20.9 20.8 20.6 20.5 20.4 20.3 20.2 20.1 20.1 20.0 21.3 21.4 21.5 21.7 21.8 21.9 21.9 21.9 21.8 21.7 21.6 21.5 21.5 21.4 21.3 21.2 21.0 20.8 20.7 20.6 20.5 20.3 20.2 20.2 20.1 20.0 21.5 21.7 21.8 22.0 22.2 22.3 22.4 22.4 22.2 22.0 21.9 21.8 21.8 21.7 21.5 21.3 21.0 20.9 20.8 20.6 20.5 20.4 20.3 20.2 20.1 20.0 21.8 22.0 22.2 22.4 22.6 22.7 22.9 22.9 22.7 22.4 22.3 22.2 22.1 21.9 21.6 21.3 21.1 21.0 20.8 20.7 20.5 20.4 20.3 20.2 20.1 20.0 22.2 22.4 22.6 22.9 23.1 23.4 23.6 23.6 23.2 22.9 22.8 22.7 22.4 22.1 21.7 21.5 21.3 21.1 20.9 20.7 20.6 20.4 20.3 20.2 20.1 20.0 22.6 23.0 23.4 23.7 23.9 24.2 24.5 24.5 24.0 23.7 23.4 23.1 22.6 22.3 21.9 21.6 21.4 21.2 21.0 20.8 20.6 20.5 20.3 20.2 20.1 20.1 23.3 25.0 27.7 27.3 25.7 26.8 27.5 26.6 25.5 24.6 24.0 23.5 22.9 22.5 22.1 21.8 21.5 21.2 21.0 20.8 20.7 20.5 20.4 20.2 20.1 20.1 25.1 33.6 47.1 44.1 30.5 29.8 32.7 30.3 27.2 25.6 24.7 24.0 23.3 22.7 22.2 21.9 21.6 21.3 21.1 20.9 20.7 20.5 20.4 20.3 20.1 20.1 35.3 57.6 84.5 79.0 43.8 38.6 48.6 42.1 31.7 27.0 25.5 24.5 23.7 23.0 22.5 22.1 21.8 21.5 21.2 21.0 20.8 20.6 20.5 20.3 20.1 20.1 45.3 81.6 120.0 119.6 71.0 75.8 110.4 89.1 49.7 29.5 26.5 25.2 24.2 23.4 22.9 22.4 22.0 21.7 21.4 21.1 20.9 20.7 20.5 20.3 20.2 20.1 43.3 81.5 138.1 179.8 144.5 176.0 253.1 198.4 98.5 41.5 28.2 26.2 25.0 24.1 23.4 22.8 22.2 21.8 21.5 21.2 20.9 20.7 20.5 20.3 20.2 20.1 36.4 65.9 133.8 219.2 213.0 282.0 397.0 335.3 178.9 58.3 30.4 27.5 25.9 24.7 23.8 23.0 22.4 21.9 21.5 21.2 20.9 20.7 20.5 20.3 20.2 20.1 32.3 51.2 108.1 193.2 205.3 285.5 398.3 381.1 239.9 74.7 31.1 27.8 26.0 24.6 23.7 23.0 22.4 21.9 21.5 21.2 20.9 20.7 20.5 20.3 20.1 20.1 30.1 38.6 72.6 134.3 145.3 170.7 222.9 234.9 167.8 60.8 29.0 26.6 25.2 24.1 23.3 22.8 22.3 21.9 21.5 21.2 20.9 20.7 20.5 20.3 20.1 20.1 26.7 29.5 42.3 75.1 80.6 63.9 66.1 70.8 55.4 32.2 26.5 25.3 24.2 23.5 22.9 22.4 22.1 21.7 21.4 21.2 20.9 20.7 20.5 20.3 20.2 20.1 23.9 26.1 28.5 39.9 43.5 35.8 33.8 31.7 28.9 26.7 25.4 24.5 23.7 23.0 22.6 22.2 21.8 21.5 21.3 21.0 20.8 20.6 20.5 20.3 20.1 20.1 20.0 20.0 20.0 20.0 20.0 20.0 20.0 20.1 20.1 20.1 20.1 20.0 20.0 20.0 20.0 20.0 20.0 20.0 20.0 20.0 20.0 20.0 20.0 20.0 20.0 20.0 20.1 20.1 20.1 20.1 20.1 20.1 20.1 20.1 20.1 20.1 20.1 20.1 20.1 20.1 20.1 20.1 20.1 20.1 20.1 20.1 20.1 20.1 20.1 20.1 20.0 20.0 20.2 20.2 20.2 20.2 20.2 20.2 20.2 20.2 20.2 20.2 20.2 20.2 20.2 20.2 20.1 20.1 20.1 20.1 20.1 20.1 20.1 20.1 20.1 20.1 20.1 20.0 20.2 20.3 20.3 20.3 20.3 20.3 20.3 20.3 20.3 20.3 20.3 20.3 20.2 20.2 20.2 20.2 20.2 20.2 20.2 20.2 20.2 20.2 20.2 20.1 20.1 20.0 20.3 20.4 20.4 20.4 20.4 20.4 20.4 20.4 20.5 20.4 20.4 20.4 20.3 20.3 20.3 20.3 20.3 20.3 20.3 20.3 20.3 20.3 20.2 20.1 20.1 20.0 20.4 20.5 20.5 20.6 20.5 20.5 20.5 20.6 20.6 20.6 20.5 20.5 20.4 20.4 20.4 20.4 20.4 20.4 20.4 20.4 20.4 20.3 20.2 20.1 20.1 20.0 20.6 20.6 20.7 20.7 20.7 20.7 20.7 20.7 20.8 20.7 20.6 20.6 20.6 20.6 20.6 20.6 20.6 20.5 20.5 20.5 20.4 20.3 20.2 20.1 20.1 20.0 20.7 20.7 20.8 20.9 20.9 20.8 20.9 20.9 20.9 20.9 20.8 20.8 20.7 20.7 20.7 20.7 20.7 20.6 20.6 20.5 20.4 20.3 20.2 20.1 20.1 20.0 20.8 20.9 21.0 21.0 21.0 21.0 21.1 21.2 21.2 21.1 21.0 21.0 20.9 20.9 20.9 20.8 20.8 20.7 20.7 20.5 20.4 20.3 20.2 20.1 20.1 20.0 21.0 21.0 21.2 21.2 21.3 21.3 21.3 21.4 21.4 21.3 21.2 21.2 21.1 21.1 21.0 21.0 20.9 20.8 20.7 20.6 20.5 20.4 20.3 20.2 20.1 20.0 21.1 21.2 21.4 21.5 21.5 21.5 21.6 21.7 21.6 21.5 21.5 21.4 21.3 21.2 21.2 21.1 21.0 20.9 20.7 20.6 20.5 20.4 20.3 20.2 20.1 20.0 21.4 21.5 21.6 21.7 21.8 21.8 21.9 22.0 22.0 21.8 21.7 21.6 21.6 21.5 21.4 21.2 21.1 20.9 20.8 20.7 20.6 20.4 20.3 20.2 20.1 20.0 21.6 21.7 21.9 22.0 22.1 22.2 22.4 22.4 22.3 22.2 22.0 21.9 21.8 21.7 21.5 21.3 21.2 21.0 20.9 20.7 20.6 20.5 20.3 20.2 20.1 20.0 21.9 22.1 22.2 22.4 22.5 22.6 22.8 22.9 22.8 22.5 22.4 22.3 22.1 21.9 21.7 21.5 21.3 21.1 21.0 20.8 20.6 20.5 20.4 20.2 20.1 20.1 22.3 22.5 22.7 22.8 23.0 23.2 23.4 23.5 23.3 23.0 22.9 22.7 22.4 22.1 21.8 21.6 21.4 21.2 21.0 20.8 20.7 20.5 20.4 20.2 20.1 20.1 22.8 23.3 23.6 23.6 23.6 23.8 24.1 24.2 24.0 23.7 23.4 23.0 22.7 22.3 22.0 21.8 21.5 21.3 21.1 20.9 20.7 20.5 20.4 20.2 20.1 20.1 24.4 28.5 29.6 26.6 25.1 25.4 26.1 25.9 25.2 24.6 24.0 23.5 23.0 22.6 22.2 21.9 21.6 21.4 21.1 20.9 20.7 20.6 20.4 20.3 20.1 20.1 35.6 57.5 62.4 42.0 27.0 27.3 29.5 28.6 26.7 25.5 24.7 24.0 23.4 22.8 22.4 22.0 21.8 21.5 21.2 21.0 20.8 20.6 20.5 20.3 20.1 20.1 65.5 111.1 122.7 77.2 32.7 32.2 38.9 35.3 29.5 26.8 25.4 24.5 23.8 23.1 22.6 22.3 21.9 21.6 21.4 21.1 20.9 20.7 20.5 20.3 20.2 20.1 87.7 148.3 169.6 113.9 46.4 46.2 60.0 53.6 41.4 31.8 26.9 25.2 24.3 23.6 23.0 22.6 22.2 21.8 21.5 21.2 21.0 20.8 20.5 20.3 20.2 20.1 82.5 154.4 200.0 158.6 88.2 116.8 159.6 144.0 96.4 46.6 29.0 26.2 25.0 24.1 23.5 22.9 22.4 22.0 21.6 21.3 21.0 20.8 20.5 20.3 20.2 20.1 68.9 136.5 204.0 187.5 139.5 226.2 313.2 278.6 160.8 55.1 30.3 27.3 25.8 24.6 23.8 23.1 22.5 22.0 21.6 21.2 21.0 20.7 20.5 20.3 20.2 20.1 58.2 104.4 165.4 164.8 127.9 205.7 288.4 278.4 167.3 50.9 30.0 27.5 26.0 24.7 23.7 23.1 22.5 22.0 21.6 21.3 21.0 20.7 20.5 20.3 20.1 20.1 44.0 63.1 96.7 124.1 100.5 98.2 124.5 141.2 103.5 39.8 28.2 26.4 25.3 24.3 23.4 22.9 22.4 22.0 21.6 21.3 21.0 20.7 20.5 20.3 20.2 20.1 31.9 34.0 43.0 76.3 77.2 48.6 43.3 46.9 41.1 29.0 26.4 25.2 24.3 23.7 23.0 22.6 22.2 21.9 21.5 21.3 21.0 20.7 20.5 20.3 20.2 20.1 26.0 28.4 30.5 39.3 41.0 34.0 32.2 30.7 28.4 26.6 25.5 24.6 23.8 23.2 22.7 22.3 22.0 21.7 21.4 21.1 20.9 20.7 20.5 20.3 20.2 20.1 20.0 20.0 20.0 20.0 20.0 20.0 20.0 20.1 20.1 20.1 20.1 20.0 20.0 20.0 20.0 20.0 20.0 20.0 20.0 20.0 20.0 20.0 20.0 20.0 20.0 20.0 20.1 20.1 20.1 20.1 20.1 20.1 20.1 20.1 20.1 20.1 20.1 20.1 20.1 20.1 20.1 20.1 20.1 20.1 20.1 20.1 20.1 20.1 20.1 20.1 20.1 20.0 20.2 20.2 20.2 20.2 20.2 20.2 20.2 20.2 20.2 20.2 20.2 20.2 20.2 20.2 20.2 20.2 20.2 20.2 20.2 20.1 20.2 20.2 20.2 20.2 20.1 20.0 20.3 20.3 20.3 20.3 20.3 20.3 20.3 20.3 20.4 20.4 20.3 20.3 20.3 20.3 20.3 20.3 20.3 20.2 20.2 20.3 20.3 20.3 20.2 20.2 20.1 20.0 20.4 20.4 20.4 20.4 20.4 20.4 20.4 20.4 20.5 20.5 20.4 20.4 20.4 20.4 20.4 20.4 20.4 20.4 20.4 20.4 20.4 20.3 20.3 20.2 20.1 20.0 20.5 20.5 20.5 20.6 20.5 20.5 20.5 20.6 20.6 20.6 20.6 20.5 20.5 20.5 20.5 20.5 20.5 20.5 20.5 20.5 20.4 20.4 20.3 20.2 20.1 20.0 20.6 20.6 20.7 20.7 20.7 20.7 20.7 20.8 20.8 20.8 20.7 20.7 20.7 20.6 20.7 20.7 20.6 20.6 20.6 20.5 20.5 20.4 20.3 20.2 20.1 20.0 20.7 20.8 20.8 20.9 20.9 20.8 20.9 20.9 21.0 20.9 20.9 20.9 20.8 20.8 20.8 20.8 20.8 20.7 20.7 20.6 20.5 20.4 20.3 20.2 20.1 20.0 20.8 20.9 21.0 21.0 21.0 21.0 21.1 21.2 21.2 21.2 21.1 21.1 21.0 21.0 21.0 20.9 20.9 20.8 20.7 20.6 20.5 20.4 20.3 20.2 20.1 20.0 21.0 21.1 21.2 21.2 21.3 21.3 21.3 21.4 21.4 21.4 21.3 21.3 21.2 21.2 21.1 21.0 21.0 20.9 20.8 20.7 20.5 20.4 20.3 20.2 20.1 20.0 21.2 21.3 21.3 21.4 21.5 21.5 21.6 21.7 21.7 21.6 21.6 21.5 21.4 21.3 21.3 21.2 21.1 21.0 20.9 20.7 20.6 20.4 20.3 20.2 20.1 20.0 21.4 21.5 21.6 21.7 21.7 21.8 21.9 22.0 22.0 21.9 21.8 21.7 21.6 21.5 21.4 21.3 21.2 21.1 20.9 20.8 20.6 20.5 20.3 20.2 20.1 20.0 21.7 21.8 21.9 22.0 22.0 22.1 22.3 22.4 22.4 22.3 22.1 22.0 21.9 21.7 21.6 21.4 21.3 21.2 21.0 20.8 20.6 20.5 20.3 20.2 20.1 20.1 21.9 22.1 22.2 22.3 22.4 22.5 22.8 22.9 22.8 22.6 22.5 22.3 22.1 21.9 21.7 21.6 21.4 21.3 21.1 20.9 20.7 20.5 20.4 20.2 20.1 20.1 22.3 22.5 22.7 22.7 22.8 23.0 23.3 23.4 23.3 23.1 22.9 22.7 22.4 22.1 21.9 21.7 21.5 21.3 21.1 20.9 20.7 20.5 20.4 20.2 20.1 20.1 22.9 23.5 23.7 23.6 23.4 23.6 23.9 24.1 24.0 23.7 23.3 23.0 22.7 22.4 22.1 21.9 21.7 21.4 21.2 20.9 20.7 20.6 20.4 20.2 20.1 20.1 25.0 30.1 30.7 26.7 24.8 24.6 25.1 25.3 24.9 24.5 23.9 23.4 23.0 22.6 22.3 22.0 21.8 21.5 21.2 21.0 20.8 20.6 20.4 20.3 20.1 20.1 45.6 73.5 62.6 32.8 26.0 26.8 27.0 27.0 26.2 25.3 24.5 23.9 23.4 22.9 22.5 22.2 21.9 21.6 21.3 21.1 20.9 20.7 20.5 20.3 20.1 20.1 102.0 147.3 114.2 46.5 28.6 30.8 30.8 30.6 29.5 27.5 25.2 24.4 23.7 23.2 22.8 22.4 22.1 21.7 21.4 21.2 21.0 20.7 20.5 20.3 20.2 20.1 144.2 193.4 149.2 72.4 57.3 55.6 44.6 41.5 41.7 35.1 27.0 25.2 24.2 23.6 23.1 22.7 22.3 21.9 21.6 21.3 21.0 20.8 20.6 20.3 20.2 20.1 134.6 207.7 171.0 104.3 118.2 129.6 104.9 106.3 92.4 49.1 29.1 26.1 24.9 24.1 23.4 22.9 22.4 22.0 21.6 21.3 21.0 20.8 20.5 20.3 20.2 20.1 109.0 192.9 172.6 122.4 176.8 231.1 221.0 199.2 125.5 50.7 29.9 26.9 25.6 24.5 23.7 23.1 22.5 22.0 21.6 21.3 21.0 20.7 20.5 20.3 20.1 20.1 91.9 151.2 140.3 99.8 142.8 196.7 202.3 173.8 94.2 39.8 29.5 27.0 25.7 24.7 23.7 23.1 22.5 22.0 21.6 21.3 21.0 20.7 20.5 20.3 20.1 20.1 69.1 91.6 91.7 86.9 86.6 81.5 81.2 79.6 56.1 33.4 28.0 26.1 25.2 24.4 23.5 22.9 22.4 22.0 21.6 21.3 21.0 20.7 20.5 20.3 20.2 20.1 49.8 49.7 51.6 72.0 65.8 42.8 40.6 42.4 37.7 29.5 26.4 25.2 24.4 23.8 23.2 22.7 22.3 21.9 21.6 21.3 21.0 20.8 20.5 20.4 20.2 20.1 37.9 41.8 39.3 39.8 36.6 32.4 32.5 33.5 30.8 26.9 25.5 24.6 23.9 23.4 22.9 22.5 22.1 21.7 21.4 21.2 20.9 20.7 20.5 20.3 20.2 20.1 20.0 20.0 20.0 20.0 20.0 20.0 20.0 20.0 20.1 20.1 20.1 20.0 20.0 20.0 20.0 20.0 20.0 20.0 20.0 20.0 20.0 20.0 20.0 20.0 20.1 20.0 20.1 20.1 20.1 20.1 20.1 20.1 20.1 20.1 20.1 20.1 20.1 20.1 20.1 20.1 20.1 20.1 20.1 20.1 20.1 20.1 20.1 20.1 20.1 20.1 20.1 20.1 20.2 20.2 20.2 20.2 20.2 20.2 20.2 20.2 20.2 20.2 20.2 20.2 20.2 20.2 20.2 20.2 20.2 20.2 20.2 20.2 20.2 20.2 20.2 20.2 20.1 20.1 20.3 20.3 20.3 20.3 20.3 20.3 20.3 20.3 20.3 20.3 20.3 20.3 20.3 20.3 20.3 20.3 20.3 20.3 20.3 20.3 20.3 20.3 20.3 20.2 20.1 20.0 20.4 20.4 20.4 20.4 20.4 20.4 20.4 20.4 20.5 20.5 20.5 20.5 20.4 20.4 20.4 20.4 20.4 20.4 20.4 20.4 20.4 20.4 20.3 20.2 20.1 20.0 20.5 20.5 20.5 20.6 20.5 20.5 20.5 20.6 20.6 20.6 20.6 20.6 20.6 20.6 20.6 20.6 20.6 20.6 20.5 20.5 20.5 20.4 20.3 20.2 20.1 20.0 20.6 20.6 20.7 20.7 20.7 20.7 20.7 20.7 20.8 20.8 20.7 20.8 20.8 20.8 20.8 20.8 20.7 20.7 20.7 20.6 20.5 20.4 20.3 20.2 20.1 20.0 20.7 20.7 20.8 20.9 20.9 20.8 20.9 20.9 21.0 21.0 20.9 21.0 21.0 20.9 20.9 20.9 20.9 20.8 20.7 20.7 20.5 20.4 20.3 20.2 20.1 20.0 20.8 20.9 21.0 21.0 21.0 21.0 21.1 21.1 21.2 21.2 21.2 21.2 21.2 21.1 21.1 21.0 21.0 20.9 20.8 20.7 20.6 20.4 20.3 20.2 20.1 20.0 21.0 21.1 21.1 21.2 21.2 21.3 21.3 21.4 21.5 21.5 21.5 21.5 21.4 21.3 21.2 21.2 21.1 21.0 20.9 20.7 20.6 20.5 20.3 20.2 20.1 20.0 21.2 21.3 21.3 21.4 21.5 21.5 21.6 21.7 21.8 21.8 21.8 21.7 21.6 21.5 21.4 21.3 21.2 21.1 20.9 20.8 20.7 20.5 20.3 20.2 20.1 20.0 21.5 21.6 21.6 21.7 21.7 21.8 21.9 22.0 22.1 22.1 22.0 21.9 21.8 21.6 21.5 21.4 21.3 21.2 21.0 20.9 20.7 20.5 20.3 20.2 20.1 20.0 21.8 21.9 21.9 22.0 22.0 22.1 22.3 22.4 22.5 22.4 22.3 22.1 22.0 21.8 21.7 21.5 21.4 21.3 21.1 20.9 20.7 20.5 20.3 20.2 20.1 20.1 22.1 22.2 22.2 22.3 22.4 22.5 22.7 22.9 22.9 22.7 22.6 22.4 22.2 22.0 21.8 21.7 21.5 21.4 21.2 20.9 20.7 20.5 20.4 20.2 20.1 20.1 22.4 22.6 22.7 22.7 22.8 22.9 23.2 23.4 23.4 23.1 22.9 22.7 22.4 22.2 22.0 21.8 21.6 21.4 21.2 21.0 20.7 20.5 20.4 20.2 20.1 20.1 22.8 23.2 23.5 23.5 23.3 23.5 23.8 24.0 24.0 23.7 23.3 23.0 22.7 22.4 22.2 22.0 21.8 21.5 21.2 21.0 20.8 20.6 20.4 20.2 20.1 20.1 24.5 27.3 27.4 25.5 24.6 24.4 24.7 24.9 24.7 24.3 23.9 23.4 23.1 22.7 22.4 22.2 21.9 21.6 21.3 21.0 20.8 20.6 20.4 20.3 20.1 20.1 46.0 58.9 41.3 26.2 26.3 25.8 26.0 26.1 25.6 25.0 24.4 23.9 23.4 23.1 22.7 22.4 22.1 21.7 21.4 21.1 20.9 20.7 20.5 20.3 20.1 20.1 107.5 123.6 65.5 27.2 29.7 28.5 28.2 29.6 30.4 27.9 25.1 24.4 23.9 23.4 23.0 22.6 22.2 21.8 21.5 21.2 21.0 20.7 20.5 20.3 20.1 20.1 163.8 171.7 92.7 56.7 74.2 61.1 42.1 42.1 44.5 35.3 26.6 25.2 24.4 23.8 23.3 22.8 22.3 22.0 21.6 21.3 21.0 20.8 20.5 20.3 20.2 20.1 168.0 192.5 125.5 115.4 155.4 130.7 87.1 90.4 85.3 45.9 28.4 26.1 25.1 24.2 23.5 23.0 22.5 22.0 21.7 21.3 21.0 20.8 20.5 20.3 20.1 20.1 137.6 187.8 144.0 153.2 200.8 187.5 162.1 144.5 100.7 46.6 29.5 26.7 25.6 24.6 23.8 23.1 22.5 22.0 21.7 21.3 21.0 20.7 20.5 20.3 20.1 20.1 112.5 160.3 131.8 129.2 153.9 143.2 142.6 116.2 68.6 39.7 30.2 27.1 25.6 24.7 23.9 23.2 22.5 22.1 21.6 21.3 21.0 20.7 20.5 20.3 20.1 20.1 93.5 112.7 100.1 99.3 91.7 65.2 64.6 62.3 50.8 38.4 29.4 26.4 25.1 24.4 23.7 23.0 22.4 22.0 21.6 21.3 21.0 20.7 20.5 20.3 20.2 20.1 72.6 74.1 67.0 73.6 61.2 42.6 43.8 49.4 45.8 34.2 27.2 25.2 24.5 24.0 23.3 22.8 22.3 21.9 21.6 21.3 21.0 20.7 20.5 20.3 20.2 20.1 48.2 59.1 51.6 41.9 34.6 32.3 34.2 38.3 34.9 27.7 25.6 24.7 24.1 23.6 23.1 22.6 22.2 21.8 21.4 21.2 20.9 20.7 20.5 20.3 20.2 20.1 20.0 20.0 20.0 20.0 20.0 20.0 20.0 20.0 20.1 20.1 20.1 20.0 20.0 20.0 20.0 20.0 20.0 20.0 20.0 20.0 20.1 20.1 20.1 20.1 20.1 20.1 20.1 20.1 20.1 20.1 20.1 20.1 20.1 20.1 20.1 20.1 20.1 20.1 20.1 20.1 20.1 20.1 20.1 20.1 20.1 20.1 20.1 20.1 20.1 20.1 20.1 20.1 20.2 20.2 20.2 20.2 20.2 20.2 20.2 20.2 20.2 20.2 20.2 20.2 20.2 20.2 20.2 20.2 20.2 20.2 20.2 20.2 20.2 20.2 20.2 20.2 20.1 20.1 20.3 20.3 20.3 20.3 20.3 20.3 20.3 20.3 20.3 20.4 20.4 20.4 20.4 20.3 20.3 20.3 20.3 20.3 20.3 20.3 20.3 20.4 20.3 20.2 20.1 20.0 20.4 20.4 20.4 20.4 20.4 20.4 20.5 20.5 20.5 20.5 20.6 20.6 20.6 20.5 20.5 20.5 20.5 20.5 20.5 20.5 20.5 20.5 20.4 20.2 20.1 20.0 20.5 20.5 20.5 20.6 20.6 20.6 20.6 20.6 20.6 20.7 20.7 20.8 20.8 20.7 20.7 20.7 20.7 20.7 20.6 20.6 20.6 20.5 20.3 20.2 20.1 20.0 20.6 20.6 20.7 20.7 20.7 20.7 20.8 20.8 20.8 20.8 20.9 21.0 21.0 20.9 20.9 20.9 20.8 20.8 20.7 20.7 20.6 20.5 20.3 20.2 20.1 20.0 20.7 20.8 20.8 20.9 20.9 20.9 21.0 21.0 21.0 21.0 21.1 21.2 21.2 21.1 21.1 21.1 21.0 20.9 20.8 20.8 20.6 20.5 20.3 20.2 20.1 20.0 20.8 20.9 21.0 21.0 21.1 21.1 21.2 21.2 21.2 21.3 21.4 21.5 21.4 21.3 21.3 21.2 21.1 21.0 20.9 20.8 20.7 20.5 20.3 20.2 20.1 20.0 21.0 21.1 21.1 21.2 21.3 21.4 21.6 21.6 21.6 21.7 21.7 21.7 21.6 21.5 21.4 21.3 21.2 21.1 21.0 20.9 20.7 20.5 20.3 20.2 20.1 20.0 21.3 21.3 21.4 21.4 21.5 21.7 21.9 21.9 22.0 22.0 22.0 21.9 21.8 21.7 21.6 21.4 21.3 21.2 21.1 20.9 20.8 20.6 20.4 20.2 20.1 20.0 21.6 21.6 21.7 21.8 21.9 22.0 22.2 22.2 22.3 22.3 22.2 22.1 21.9 21.8 21.7 21.6 21.4 21.3 21.2 21.0 20.8 20.6 20.4 20.2 20.1 20.0 21.9 21.9 22.0 22.1 22.3 22.3 22.5 22.6 22.7 22.6 22.5 22.3 22.1 22.0 21.8 21.7 21.5 21.4 21.2 21.0 20.8 20.5 20.4 20.2 20.1 20.0 22.2 22.3 22.3 22.5 22.5 22.6 22.8 23.0 23.1 22.9 22.7 22.5 22.3 22.1 22.0 21.8 21.7 21.5 21.3 21.1 20.8 20.5 20.3 20.2 20.1 20.0 22.5 