<?xml version="1.0"?>
<VTKFile type="PolyData" version="1.0" byte_order="LittleEndian" header_type="UInt64">
<PolyData>
<Piece NumberOfPoints="665" NumberOfVerts="0" NumberOfLines="0" NumberOfPolys="0">
    <Points>
        <DataArray type="Float32" NumberOfComponents="3" format="ascii">
        16.5763 11.8090 4.6308 16.3432 12.3133 4.8639 15.7766 6.2633 7.2218 17.2469 11.6214 3.9602 17.2364 11.7281 3.9707 16.7390 10.8534 4.4681 16.1902 8.4611 6.8226 17.1768 11.5650 4.0303 16.4583 11.6961 4.7488 16.3718 10.4736 4.8353 16.6673 9.6888 5.0920 17.2819 11.8387 3.9253 16.4653 8.1179 6.0533 16.9235 10.9694 4.2836 17.0899 11.5977 4.1172 16.4661 8.1898 6.8057 16.4527 11.4927 4.7544 16.3591 12.0454 4.8480 16.8253 12.2050 4.3818 16.9571 10.7971 4.2500 16.3792 10.4211 4.8279 16.6467 10.0196 4.6933 17.3889 11.8030 3.8182 16.9966 11.4673 4.2105 16.0472 9.2103 6.7787 16.9732 12.2035 4.2339 16.9391 7.5743 6.4966 16.7864 7.1432 6.4782 16.9799 10.6403 4.2272 16.8002 7.8802 5.8976 17.1751 11.6436 4.0320 16.9123 7.5269 6.2135 17.3289 10.9405 3.8782 16.7801 12.3995 4.4270 17.0077 12.0932 4.1994 16.8849 8.0641 6.5901 16.6290 10.7533 4.5781 16.4606 6.7922 7.0938 16.9370 7.6816 6.5240 16.8278 6.8578 6.6469 16.5891 7.8300 6.3411 16.7771 11.0138 4.4300 16.7781 10.3994 5.1506 16.9159 11.3958 4.2912 16.4045 12.0296 4.8026 16.8253 11.6778 4.3818 16.0544 6.9193 6.8813 16.5105 9.8571 4.3504 17.0963 11.6954 4.1108 17.1002 11.5002 4.1069 16.9561 7.4638 6.6158 16.6708 7.2879 6.4573 16.5752 12.6086 4.6319 16.5049 12.6750 4.7022 16.8185 10.6691 4.3886 16.7250 10.7172 4.4821 16.3048 7.0632 6.8662 17.0566 11.3442 4.1505 16.3705 8.6369 7.2230 16.3723 12.5097 4.8348 16.7882 11.2595 4.4189 16.4692 12.2763 4.7379 16.6200 11.4091 4.5871 17.2445 11.9864 3.9626 16.5677 11.3775 4.6394 16.9757 7.0671 6.7740 16.7791 9.4093 5.3973 16.4747 11.8496 4.7324 17.0568 11.3436 4.1503 16.7220 6.7407 6.6504 16.5841 12.9407 4.6230 16.4305 12.3879 4.7766 16.5414 11.4619 4.6657 16.4833 12.3813 4.7238 16.5649 12.9273 4.6422 16.7145 11.6011 4.4926 16.5431 7.6522 6.7008 16.3612 11.8788 4.8459 16.6098 11.6021 4.5973 16.3853 12.5410 4.8218 16.8209 11.3944 4.4126 16.5938 7.9742 6.7404 17.3682 11.5409 3.8389 16.9190 12.2486 4.2881 16.4521 9.5748 5.9118 16.9743 11.1093 5.1956 16.6309 12.5318 4.5762 16.3426 8.6711 7.3069 16.5995 7.2501 6.5391 16.4886 8.0967 7.2008 16.3785 11.4671 4.8286 16.1857 8.6998 7.2542 16.7885 11.5779 4.4186 16.5814 12.3552 4.6257 16.8556 9.7650 4.8295 16.2949 12.5673 4.9122 16.4206 11.5216 4.7865 16.5827 11.5240 4.6244 17.6096 11.8045 3.5976 16.7436 7.3586 6.7992 16.8908 7.2591 6.2591 16.7389 9.4905 5.6454 16.9377 6.9371 6.7152 16.8288 12.3476 4.3783 16.3857 12.5526 4.8214 16.6249 11.7614 4.5822 16.8727 11.7207 4.3344 16.5830 11.9193 4.6241 17.0374 10.6628 4.8854 17.1685 11.2057 4.0386 16.5845 11.2448 5.5955 16.2803 11.9905 4.9268 16.8266 9.4030 5.2655 16.3772 12.2916 4.8299 17.1249 11.1527 5.1619 17.0257 7.2471 7.1638 16.8518 7.0278 6.4342 16.7713 9.6904 5.1727 16.7548 6.7457 6.5931 16.6531 9.9161 5.5966 16.4048 12.6728 4.8023 16.7602 12.3310 4.4470 16.8218 9.7273 4.9378 16.8151 11.5708 4.3921 17.0769 10.4982 4.9890 16.6901 11.1138 4.5170 15.9152 8.8877 7.5080 16.5373 12.4755 4.6698 17.0273 11.7551 4.1798 16.7791 9.8112 4.8462 16.6554 8.4730 7.0159 17.3768 10.9687 4.0037 16.4851 7.2617 7.1422 16.7627 11.4858 4.4444 16.4704 11.5462 4.7368 16.6778 12.3894 4.5293 16.3176 12.1927 4.8895 16.9829 7.2597 6.9094 16.9782 10.7421 4.9673 16.7443 6.7946 6.5312 16.6772 12.6688 4.5300 16.2408 7.2996 7.3782 16.7359 5.5487 7.6562 15.9060 7.4287 7.6181 17.0343 12.2227 4.1728 16.1529 12.2802 5.0542 17.1943 11.1277 4.0128 17.4688 11.7047 3.7383 16.2738 12.0104 4.9333 16.8479 6.3963 6.7449 16.6388 7.9880 7.1974 16.1711 8.1523 7.4593 16.6913 9.4161 5.9419 16.5171 12.7970 4.6900 16.5798 12.7476 4.6273 16.3427 12.2167 4.8644 16.1747 9.2221 7.1211 16.5025 11.6268 5.5289 16.6676 11.6123 4.5395 16.7656 11.4118 4.4415 16.7732 12.1978 4.4339 16.3815 12.2530 4.8256 16.7204 6.4082 7.9793 16.4642 12.3634 4.7429 16.4503 12.1338 4.7568 16.6072 11.4152 4.5999 16.3308 11.6140 4.8763 15.8505 9.2323 7.3017 16.8502 7.7227 7.2170 16.7250 11.8200 4.4821 16.4987 12.7299 4.7084 16.3273 9.3311 6.3192 16.8498 10.7750 4.3573 16.8248 12.7958 4.3823 15.7804 8.6731 7.7977 16.7470 11.5921 4.4601 16.3592 11.7851 4.8479 17.3197 11.8718 3.8875 16.3637 12.2832 4.8434 16.4009 12.0711 4.8062 17.0966 11.5866 4.1105 16.8873 11.8198 4.3198 16.8564 10.4958 4.3507 16.4574 9.6505 6.2118 16.3377 11.7187 5.6068 16.2062 12.2295 5.0010 16.9131 10.7594 4.2940 16.3180 8.9268 7.1834 16.9082 5.5301 7.7425 16.7082 11.4103 4.4989 16.4245 11.9913 4.7826 16.4039 12.0602 4.8032 16.3326 12.0525 4.8745 16.6011 11.6823 4.6060 16.9482 11.4981 4.2589 16.4247 9.5069 6.5596 16.2675 11.9665 4.9396 16.3796 12.1396 4.8275 16.6717 11.6264 5.2496 15.6450 9.0760 7.6431 16.2415 11.8899 4.9656 16.5284 7.8832 7.5949 16.9295 10.8873 4.2776 17.1518 11.7003 4.0553 16.7634 11.7293 4.4437 15.5956 7.4708 8.0653 17.1843 11.9297 4.0228 16.5690 11.6621 4.6381 16.4689 11.6809 4.7382 16.9817 10.3589 4.9138 16.5594 7.4950 7.6199 16.3863 7.9021 7.5523 17.2089 11.8882 3.9982 16.4700 12.4489 4.7371 16.7345 9.6552 5.6099 16.3175 12.5967 4.8896 16.7146 6.6984 7.6543 16.9789 10.4617 5.8634 16.4574 12.6986 4.7497 16.3484 12.2975 4.8587 17.2888 11.9375 3.9183 16.6040 11.6405 4.6031 16.6362 9.6992 5.5654 16.7647 10.3819 4.7101 15.8907 6.9119 8.0792 16.4775 11.9092 4.7296 16.9935 10.6880 5.8118 16.4442 7.5438 7.6881 16.9332 10.4975 4.7264 17.3743 11.6806 3.8328 16.4707 11.8447 4.7364 16.4222 12.6972 4.7849 16.8802 10.1780 5.5297 16.2267 11.8141 4.9804 16.5145 11.6618 5.9401 16.8221 11.3054 4.3850 15.8957 8.9486 7.7999 17.1043 10.6565 4.8749 16.3045 9.2646 7.1597 17.1569 11.6301 4.0502 16.5450 12.5299 4.6621 17.3298 10.9908 3.8773 16.5862 12.9586 4.6209 16.9849 11.2571 4.2222 16.3683 11.2267 5.9969 16.3081 12.4940 4.8990 16.5448 9.7214 5.8489 16.2732 8.3673 7.7914 16.4200 11.7284 4.7871 16.6549 11.7043 4.5522 16.9336 11.6384 4.2735 16.8639 11.3463 6.0310 16.6524 10.0509 6.1000 16.6316 9.6986 6.0918 16.7444 11.6966 4.9568 16.2658 8.0593 7.8083 16.1543 12.3801 5.0528 16.2862 9.6646 6.2516 16.7713 10.4021 5.2668 16.5067 11.8484 4.7004 16.2088 9.4989 6.7924 16.9070 10.6727 5.6447 17.0008 11.5347 4.2063 16.4464 12.6631 4.7608 15.3452 8.9003 7.8069 17.0732 11.5737 4.1339 16.3584 11.8092 5.9314 16.9357 10.6134 5.7247 16.3051 11.8724 4.9020 16.5292 11.9327 4.6779 16.2255 12.7494 4.9816 16.3747 12.3506 4.8324 17.1930 11.2630 4.0141 16.1476 9.7146 6.4807 16.9114 12.4691 4.2957 16.3599 12.4952 4.8472 17.0621 12.0580 4.1450 16.3044 9.4896 6.9970 16.9125 11.5952 4.2946 16.6968 11.7525 4.5651 16.3397 10.0139 6.1731 17.0290 11.1909 4.1781 15.2942 8.9254 7.6197 15.6842 9.4006 7.4541 16.1856 9.9692 6.3865 16.3114 11.7098 6.0941 17.3739 11.9267 3.8333 16.9280 11.5025 5.3179 17.1888 11.2498 4.2988 16.9835 11.5755 4.2236 16.3195 12.3231 4.8876 16.7159 11.6045 4.4912 15.8652 9.5511 7.1628 16.8283 11.2962 4.3788 15.7854 9.5817 7.3515 16.1898 12.1446 5.0173 17.0745 11.6336 4.1326 16.4159 10.1117 6.5001 17.2930 11.2052 4.9566 16.5959 11.7593 5.3053 16.3969 12.5254 4.8102 17.0216 11.3944 4.4454 16.1099 9.4707 7.0445 16.2543 12.1098 4.9528 16.6060 12.6716 4.6011 16.1345 9.2425 7.4320 16.6339 11.3216 4.8732 16.1897 11.9030 6.0427 16.4641 11.6226 4.7431 16.0123 9.4260 7.2670 15.8010 8.6079 8.0146 15.9075 9.6791 6.9294 16.7197 12.3792 4.4874 15.9876 9.4717 7.1711 16.9826 11.8685 4.2245 16.2772 10.1055 6.6204 16.4426 10.2560 6.5710 16.7368 11.3279 4.4703 16.7501 11.8663 4.4570 16.2318 11.9924 4.9753 15.8300 9.6258 7.2426 17.1312 11.8470 4.0759 16.1790 11.7744 5.2658 16.6258 10.0911 6.4332 16.2548 11.8579 4.9523 16.2439 12.3578 4.9632 17.2128 11.5963 3.9943 16.5317 11.2608 5.6975 16.1320 9.9968 6.6331 17.2857 11.0351 4.9380 16.3382 10.2643 6.5178 16.4415 11.7360 5.7009 16.0809 11.7934 5.9546 16.6213 11.6968 4.5858 17.4510 11.9170 3.7561 16.6154 11.7127 4.5917 17.0629 10.9610 4.9334 17.3074 11.8586 3.8997 16.2166 12.9753 4.9905 16.4953 12.6025 4.7119 16.8265 11.6646 5.1355 17.0701 11.4858 4.1370 16.1044 12.1398 5.1027 16.8873 11.7711 4.3198 17.0916 11.4252 4.1707 16.8946 10.9918 4.7843 16.5717 11.7540 5.8027 17.1472 11.3416 5.5202 17.1235 11.0494 6.2696 16.3013 11.7226 4.9058 16.4032 11.5766 4.8039 16.1801 10.0368 6.6341 17.1951 11.7147 4.0120 16.9419 11.8878 4.2652 16.7200 10.1374 6.3946 16.0585 10.0849 6.7649 16.7311 10.0676 6.3131 17.2983 12.1274 3.9088 16.1920 9.3288 7.3713 16.2274 10.0880 6.7351 17.0910 10.7846 5.7145 16.6082 9.8189 6.6315 16.2722 12.5400 4.9349 16.4287 12.7698 4.7784 16.5170 9.8465 6.5898 16.8171 11.0924 5.0237 16.1320 9.2308 7.5336 16.9630 11.9897 4.2441 16.1503 12.2869 5.4111 16.4694 11.3538 6.7977 16.1464 9.3623 7.4140 16.4086 11.8108 4.7985 16.1213 11.8276 5.0858 17.0197 10.9287 5.5893 17.0909 11.2476 4.1162 16.2029 11.8347 6.3962 16.6154 11.5148 4.5917 16.4137 11.7028 4.7934 16.3647 12.5159 4.8424 17.1242 11.0539 4.3383 16.9548 10.3962 6.3418 15.7580 9.4570 7.6685 16.8890 10.8032 6.1442 17.0974 10.8475 6.5312 17.1374 12.1234 4.0697 16.6770 11.1773 5.1614 16.4579 10.0983 6.7809 16.0891 12.8198 5.1180 16.5240 11.9988 5.0460 16.9999 10.9883 6.6295 15.9253 9.7810 7.0773 16.5589 11.9396 4.6482 17.1995 11.7010 4.0076 17.0469 10.6201 6.5368 16.1765 12.3782 5.0306 17.0503 11.0652 6.4912 16.9021 11.0327 4.8168 15.9691 8.9049 7.9638 16.5952 10.7811 6.6060 16.9284 10.6830 6.0124 16.7432 11.5559 4.4639 16.7771 10.1246 6.4711 16.5051 11.9218 5.7035 16.1495 9.9509 6.8787 16.0943 11.9702 5.5868 16.6089 12.7322 4.5982 16.5325 10.5460 6.5873 16.1882 10.1714 6.9433 16.6285 10.7537 6.3529 17.1187 12.3161 4.0884 16.2803 10.3434 6.8932 17.0791 12.0439 4.1280 16.6864 11.0974 6.8914 16.9738 11.6879 4.2334 16.4956 10.6430 6.8065 16.4275 12.7050 4.7796 16.2187 12.1135 4.9884 16.4607 12.8845 4.7464 16.3731 11.9719 6.0779 16.8303 11.6560 4.3768 16.1191 12.5914 5.0880 16.9471 11.3709 4.2601 17.2610 10.9755 5.4082 17.2475 11.6627 3.9596 16.6224 11.4112 5.1962 16.0737 12.0546 6.0705 16.3576 12.2102 4.8495 16.5029 13.0282 4.7042 16.9823 11.8628 4.2248 16.0746 9.6456 7.1743 17.2009 12.3434 4.0062 16.4705 11.4525 5.3626 16.2237 11.4669 6.1264 16.5915 10.0821 6.6723 17.2319 12.1784 3.9752 16.0969 12.8950 5.1102 16.4073 11.6610 4.7998 16.4376 11.5842 5.2103 16.1440 12.3668 5.0631 16.6545 12.9246 4.5526 16.5371 12.8991 4.6700 15.9997 11.9375 5.2914 16.0448 11.9509 6.3100 16.2098 12.7078 4.9973 15.9398 9.7208 7.2808 16.3294 12.4952 4.9668 17.2385 11.1117 6.0004 16.7176 11.5027 4.4895 16.2001 10.6446 6.9652 16.3627 11.2118 6.6593 16.8550 12.6938 4.3521 17.0901 11.9993 4.1170 17.0598 10.9752 6.0649 16.7558 10.0073 6.7356 16.6601 11.5094 4.5470 16.6173 11.9094 5.6287 16.6057 9.9356 6.9525 16.8172 11.4364 4.3899 16.6168 11.9331 5.4383 16.4763 11.7362 4.7308 17.1395 11.5271 4.0676 16.8415 11.7689 4.3656 16.9896 10.7399 6.8080 15.7925 9.6270 7.5734 17.2565 11.8798 3.9506 17.1309 10.7624 6.3444 16.2235 11.8786 4.9836 16.7205 11.7430 4.4866 17.1194 10.8321 6.4254 15.8412 9.6289 7.5352 16.6060 12.6804 4.6011 16.3394 12.5781 5.1246 16.6313 11.2348 4.5758 17.0294 11.5048 4.1777 16.7084 10.0957 6.9804 16.6574 12.1634 4.5498 16.6294 11.5379 4.5777 16.8765 11.5056 6.2233 16.6545 11.5845 4.5526 16.2455 11.8811 6.3850 16.9355 11.5382 4.2716 16.2892 10.3685 7.1539 16.3690 12.6656 4.8381 16.7634 11.9345 4.4437 16.4445 12.5103 4.7626 16.0238 9.7823 7.3104 17.1563 11.9021 4.0508 16.1319 12.0358 5.0752 17.2101 12.1004 3.9970 16.5217 12.0340 5.7544 16.0364 12.0138 5.1707 17.3473 12.0564 3.8598 16.1900 12.4627 5.0172 16.3390 12.8759 4.8681 15.9661 9.9343 7.1392 16.9644 11.5412 4.2427 16.9509 11.5544 4.8163 16.0245 12.7560 5.1826 16.2043 12.2669 5.0028 17.1142 11.5644 4.0929 16.2444 11.3739 5.3455 17.3986 11.7398 3.8085 16.3410 10.3725 7.2248 16.0993 12.8701 5.1078 16.4788 12.8199 4.7283 15.8124 9.6508 7.5824 16.1327 12.2421 5.0744 15.7800 10.0865 7.3773 16.8854 12.5722 4.3217 16.4315 9.7869 7.1920 16.3173 12.1271 6.1404 17.0848 12.0972 4.1223 17.0401 11.4562 4.7951 16.2128 9.3853 7.5324 16.3041 12.8754 4.9030 16.2086 10.5241 7.2145 15.9869 11.8701 5.8677 16.3132 12.5181 5.6634 16.1726 11.2980 7.2141 15.8654 11.9000 5.0222 16.9089 11.4783 6.2821 16.9043 11.7947 5.1654 17.1886 12.0361 4.0185 16.8492 11.3462 6.6640 16.2686 9.9105 7.2972 16.2926 11.0324 7.0328 17.0573 10.8003 6.5817 15.6959 9.8301 7.5741 16.3229 11.3169 6.7227 16.7695 10.7661 7.1769 15.6892 9.6699 7.7442 16.2927 12.0583 6.4102 16.8655 12.1502 4.4132 16.3176 12.8967 4.8895 15.8300 12.1928 4.9868 17.0407 11.4020 4.1664 16.8805 11.0555 6.9576 17.2633 12.0644 3.9438 16.8303 11.3328 4.3768 16.0257 12.3980 5.9355 16.1538 12.6672 5.0533 16.3975 11.7894 4.8096 16.8850 11.6629 5.8503 16.2545 11.9024 4.9527 15.9487 12.6754 5.2584 16.5460 10.8054 7.0876 15.7516 11.6079 6.7775 16.7871 11.5607 4.4200 16.1780 11.5020 5.2912 16.9048 11.5043 4.3023 15.8328 12.6554 4.9897 17.0005 11.9623 4.5541 16.8229 11.8201 5.8359 16.6956 11.6170 4.5115 17.2015 11.9755 4.0057 16.1249 11.9056 6.4933 16.6790 12.5044 4.5281 16.6059 12.1132 5.7699 16.8040 11.5498 6.1979 16.8720 11.4879 4.3351 15.8849 11.8254 6.6798 16.0835 12.1710 6.4282 16.5908 9.9785 7.1624 16.3626 11.4277 5.7018 16.1069 10.4716 7.4510 16.9378 10.6498 6.9775 16.9239 11.1330 6.8338 16.9450 12.1457 4.6676 15.9669 12.0921 6.4947 16.7197 12.2873 5.0088 16.7735 12.1449 5.4374 15.7986 10.3289 7.5800 16.5137 11.0654 7.0219 16.0778 12.1742 5.1293 15.9335 11.6057 6.4255 15.8969 12.0714 5.5009 16.0464 11.1812 7.4809 16.9229 11.4725 4.2842 16.1459 11.5503 6.5865 16.3912 11.4684 5.7150 16.6220 12.3433 5.5967 16.0006 12.0520 5.9398 16.0526 12.4016 5.8617 16.1224 11.9892 5.0847 16.6357 11.9370 6.3727 16.2017 11.8721 5.0054 16.2220 13.0364 5.0527 15.9924 11.6962 5.4317 17.0007 11.7437 4.7404 16.9117 10.7304 7.0214 16.3593 12.5714 6.0365 16.2648 11.4987 5.3026 16.4506 11.5947 4.7565 16.2735 12.7460 6.0492 16.1587 12.0158 5.6097 16.4305 12.6835 4.8669 16.9834 11.6527 4.6759 16.2313 12.9370 5.4246 15.8959 11.5122 6.7377 16.6870 10.8253 7.3075 16.7001 12.8575 4.5070 16.7913 12.1432 5.4143 16.5708 11.7672 4.6363 16.0680 12.9176 5.1391 16.5399 10.3266 7.3768 16.0160 10.2225 7.6309 16.1156 11.9890 6.3231 16.5130 12.5365 5.8482 16.1643 10.9164 7.3869 16.9120 11.3229 6.2105 15.9484 11.6559 7.2951 16.1423 12.3189 5.0648 15.9042 11.1743 7.5628 16.9798 11.5514 5.5697 16.1816 12.1934 5.0255 16.1182 12.4494 5.0889 16.2881 10.2305 7.3323 16.1757 9.8328 7.4020 17.0328 11.6720 4.3439 16.9607 11.5153 5.1612 17.1311 11.6730 4.0760 17.0870 11.6964 4.9669 16.8099 12.0496 5.2287 15.9902 10.0580 7.4217 16.8319 11.7683 6.2434 16.0072 12.2472 5.3907 16.8222 11.1881 6.3309 16.1826 10.9413 7.5875 16.1743 11.6294 7.2143 16.8770 12.3445 5.1453 16.7266 11.5701 6.6603 16.5003 12.8270 4.9590 16.2211 12.8451 5.9389 16.8108 11.7515 6.3464 16.1923 12.1219 5.0148 16.3538 11.6913 4.8533 16.5081 11.4684 4.6990 16.8842 12.2304 5.2035 16.3221 12.5940 4.8850 16.8832 11.7789 4.3239 16.2682 12.0113 6.6658 16.1078 9.5298 7.7471 16.5573 11.2289 6.9470 17.0156 12.0512 4.9075 16.8896 11.5626 6.1677 16.3649 12.5979 5.2058 16.8365 12.1280 4.8642 17.0021 11.8160 5.0308 16.1984 11.9561 6.2191 16.5135 11.5743 5.3043 16.3893 11.4874 6.2662 15.8258 10.1543 7.6295 16.4258 11.5933 4.7813 15.9973 12.7256 5.8041 16.9740 12.1449 4.9325 17.1714 12.1810 4.5617 16.3996 11.0552 7.1438 16.5815 11.6345 4.7932 16.0962 11.7199 6.2874 17.0282 11.9674 5.2067 16.6001 12.2503 6.1315 15.9940 11.5995 7.3980 17.0013 11.8414 4.2354 15.8725 11.7588 7.1191 16.2443 12.8183 5.5258 
        </DataArray>
    </Points>
    <PointData>
        <DataArray type="Float32" Name="tag" format="ascii">
            63.0000 95.0000 131.0000 175.0000 179.0000 207.0000 219.0000 247.0000 287.0000 299.0000 351.0000 367.0000 379.0000 383.0000 419.0000 455.0000 491.0000 515.0000 607.0000 627.0000 739.0000 935.0000 947.0000 1003.0000 1023.0000 1063.0000 1099.0000 1119.0000 1131.0000 1171.0000 1187.0000 1211.0000 1307.0000 1327.0000 1411.0000 1551.0000 1567.0000 1791.0000 1803.0000 1855.0000 1859.0000 1883.0000 1907.0000 1927.0000 1963.0000 1991.0000 2035.0000 2047.0000 2063.0000 2075.0000 2083.0000 2191.0000 2207.0000 2311.0000 2391.0000 2475.0000 2491.0000 2563.0000 2623.0000 2711.0000 2767.0000 2807.0000 2959.0000 2971.0000 3023.0000 3087.0000 3091.0000 3167.0000 3195.0000 3271.0000 3287.0000 3319.0000 3323.0000 3355.0000 3359.0000 3375.0000 3423.0000 3463.0000 3495.0000 3531.0000 3567.0000 3607.0000 3615.0000 3655.0000 3663.0000 3711.0000 3751.0000 3775.0000 3795.0000 3819.0000 3839.0000 3883.0000 3903.0000 3927.0000 3943.0000 3967.0000 3983.0000 4015.0000 4019.0000 4067.0000 4127.0000 4183.0000 4187.0000 4199.0000 4231.0000 4247.0000 4271.0000 4291.0000 4395.0000 4403.0000 4415.0000 4463.0000 4515.0000 4519.0000 4551.0000 4555.0000 4583.0000 4615.0000 4643.0000 4751.0000 4767.0000 4803.0000 4843.0000 4851.0000 4891.0000 4899.0000 4947.0000 4971.0000 4995.0000 5015.0000 5035.0000 5107.0000 5115.0000 5139.0000 5227.0000 5251.0000 5255.0000 5271.0000 5299.0000 5455.0000 5459.0000 5643.0000 5655.0000 5703.0000 5727.0000 5739.0000 5767.0000 5795.0000 5799.0000 5815.0000 5867.0000 5891.0000 6055.0000 6095.0000 6103.0000 6123.0000 6207.0000 6275.0000 6367.0000 6411.0000 6415.0000 6427.0000 6431.0000 6507.0000 6539.0000 6559.0000 6627.0000 6663.0000 6671.0000 6691.0000 6767.0000 6795.0000 6851.0000 6879.0000 6911.0000 6927.0000 6943.0000 7035.0000 7063.0000 7075.0000 7111.0000 7143.0000 7147.0000 7175.0000 7183.0000 7231.0000 7427.0000 7495.0000 7575.0000 7579.0000 7587.0000 7683.0000 7743.0000 7747.0000 7767.0000 7783.0000 7803.0000 7819.0000 7867.0000 7883.0000 7903.0000 7919.0000 7983.0000 8043.0000 8075.0000 8095.0000 8119.0000 8179.0000 8187.0000 8199.0000 8263.0000 8291.0000 8315.0000 8319.0000 8367.0000 8571.0000 8603.0000 8615.0000 8675.0000 8679.0000 8703.0000 8723.0000 8803.0000 8815.0000 8903.0000 8931.0000 9019.0000 9027.0000 9039.0000 9179.0000 9183.0000 9187.0000 9255.0000 9267.0000 9295.0000 9379.0000 9407.0000 9459.0000 9471.0000 9555.0000 9567.0000 9639.0000 9691.0000 9695.0000 9751.0000 9775.0000 9799.0000 9963.0000 9995.0000 10003.0000 10063.0000 10131.0000 10155.0000 10279.0000 10303.0000 10311.0000 10355.0000 10419.0000 10495.0000 10499.0000 10515.0000 10531.0000 10583.0000 10599.0000 10611.0000 10675.0000 10691.0000 10763.0000 10803.0000 10867.0000 10931.0000 10951.0000 11015.0000 11051.0000 11123.0000 11131.0000 11195.0000 11283.0000 11307.0000 11327.0000 11351.0000 11367.0000 11427.0000 11435.0000 11439.0000 11471.0000 11491.0000 11551.0000 11567.0000 11691.0000 11743.0000 11751.0000 11759.0000 11807.0000 11855.0000 11903.0000 11931.0000 12011.0000 12027.0000 12127.0000 12135.0000 12143.0000 12171.0000 12195.0000 12207.0000 12211.0000 12219.0000 12239.0000 12275.0000 12279.0000 12283.0000 12303.0000 12319.0000 12359.0000 12383.0000 12395.0000 12411.0000 12427.0000 12459.0000 12499.0000 12631.0000 12651.0000 20727.0000 12719.0000 12731.0000 12755.0000 12919.0000 12939.0000 13023.0000 13075.0000 13083.0000 13119.0000 13179.0000 13231.0000 13259.0000 13395.0000 13415.0000 13463.0000 13615.0000 13639.0000 13647.0000 13671.0000 13687.0000 13727.0000 13771.0000 13775.0000 13787.0000 13811.0000 13847.0000 13851.0000 13871.0000 13875.0000 13887.0000 14051.0000 14087.0000 14151.0000 14179.0000 14211.0000 14215.0000 14255.0000 14295.0000 14327.0000 14375.0000 14471.0000 14491.0000 14555.0000 14587.0000 14603.0000 14611.0000 14615.0000 14763.0000 14807.0000 14827.0000 14899.0000 14903.0000 14911.0000 14939.0000 14959.0000 14971.0000 15039.0000 15083.0000 15139.0000 15279.0000 15283.0000 15343.0000 15399.0000 15407.0000 15427.0000 15455.0000 15567.0000 15575.0000 15647.0000 15659.0000 15671.0000 15683.0000 15695.0000 15783.0000 15847.0000 15923.0000 15935.0000 15951.0000 15971.0000 16007.0000 16031.0000 16087.0000 16091.0000 16099.0000 16135.0000 16147.0000 16155.0000 16187.0000 16219.0000 16327.0000 16367.0000 16387.0000 16407.0000 16475.0000 16523.0000 16539.0000 16623.0000 16635.0000 16643.0000 16703.0000 16767.0000 16807.0000 16811.0000 16851.0000 16875.0000 16979.0000 17007.0000 17083.0000 17103.0000 17231.0000 17235.0000 17343.0000 17363.0000 17371.0000 17375.0000 17387.0000 17407.0000 17443.0000 17467.0000 17555.0000 17559.0000 17567.0000 17631.0000 17651.0000 17667.0000 17795.0000 17819.0000 17843.0000 17879.0000 17903.0000 17919.0000 17931.0000 17947.0000 17955.0000 17987.0000 18027.0000 18127.0000 18187.0000 18203.0000 18279.0000 18383.0000 18435.0000 18511.0000 18523.0000 18707.0000 18763.0000 18851.0000 18883.0000 19027.0000 19115.0000 19135.0000 19143.0000 19187.0000 19219.0000 19231.0000 19303.0000 19347.0000 19387.0000 19395.0000 19403.0000 19467.0000 19491.0000 19547.0000 19587.0000 19755.0000 19779.0000 19923.0000 20015.0000 20123.0000 20191.0000 20203.0000 20267.0000 20295.0000 20315.0000 20319.0000 20359.0000 20367.0000 20519.0000 20575.0000 20707.0000 20767.0000 20831.0000 20847.0000 20895.0000 20955.0000 20983.0000 21071.0000 21147.0000 21219.0000 21239.0000 21271.0000 21303.0000 21319.0000 21323.0000 21355.0000 21383.0000 21423.0000 21439.0000 21447.0000 21487.0000 21615.0000 21671.0000 21715.0000 21719.0000 21751.0000 21759.0000 21819.0000 21911.0000 21919.0000 21975.0000 21995.0000 22043.0000 22067.0000 22071.0000 22087.0000 22107.0000 22139.0000 22167.0000 22203.0000 22311.0000 22319.0000 22339.0000 22403.0000 22467.0000 22515.0000 22595.0000 22627.0000 22783.0000 22815.0000 22835.0000 22887.0000 22899.0000 23071.0000 23079.0000 23239.0000 23255.0000 23279.0000 23315.0000 23339.0000 23355.0000 23367.0000 23371.0000 23607.0000 23623.0000 23675.0000 23731.0000 23747.0000 23755.0000 23767.0000 23779.0000 23783.0000 23847.0000 23855.0000 23859.0000 23899.0000 23943.0000 23951.0000 23995.0000 24011.0000 24079.0000 24091.0000 24127.0000 24131.0000 24135.0000 24151.0000 24191.0000 24223.0000 24247.0000 24307.0000 24335.0000 24367.0000 24379.0000 24403.0000 24415.0000 24431.0000 24463.0000 24467.0000 24547.0000 24555.0000 24635.0000 24655.0000 24699.0000 24707.0000 24743.0000 24783.0000 24791.0000 24847.0000 24899.0000 24939.0000 24943.0000 25011.0000 25035.0000 25071.0000 25135.0000 25151.0000 25227.0000 25243.0000 25259.0000 25263.0000 25287.0000 25303.0000 25403.0000 25435.0000 25579.0000 25603.0000 25623.0000 25639.0000 25655.0000 25659.0000 25675.0000 25739.0000 25751.0000 25755.0000 25775.0000 25823.0000 25835.0000 25855.0000 25859.0000 25915.0000 25971.0000 25999.0000 26039.0000 26051.0000 26087.0000 26151.0000 26175.0000 26187.0000 26207.0000 26219.0000 26223.0000 26259.0000 26303.0000 26307.0000 26323.0000 26375.0000 26471.0000 26495.0000 26507.0000 26599.0000 26651.0000 26747.0000 26751.0000 
         </DataArray>
    </PointData>
</Piece>
</PolyData>
</VTKFile>