<?xml version="1.0"?>
<VTKFile type="RectilinearGrid" version="1.0" byte_order="LittleEndian" header_type="UInt64">
<RectilinearGrid WholeExtent="25 50 0 25 0 15">
<Piece Extent="25 50 0 25 0 15">
<Coordinates>
<DataArray type="Float64" Name="Array X-Axis" format="ascii" RangeMin="15.0" RangeMax="30.0">
15.0 15.6 16.2 16.8 17.4 18.0 18.6 19.2 19.8 20.4 21.0 21.6 22.2 22.8 23.4 24.0 24.6 25.2 25.8 26.4 27.0 27.6 28.2 28.8 29.4 30.0 
</DataArray>
<DataArray type="Float64" Name="Array Y-Axis" format="ascii" RangeMin="0.0" RangeMax="15.0">
0.0 0.6 1.2 1.8 2.4 3.0 3.6 4.2 4.8 5.4 6.0 6.6 7.2 7.8 8.4 9.0 9.6 10.2 10.8 11.4 12.0 12.6 13.2 13.8 14.4 15.0 
</DataArray>
<DataArray type="Float64" Name="Array Z-Axis" format="ascii" RangeMin="0.0" RangeMax="9.0">
0.0 0.6 1.2 1.8 2.4 3.0 3.6 4.2 4.8 5.4 6.0 6.6 7.2 7.8 8.4 9.0 
</DataArray>
</Coordinates>
<PointData>
<DataArray Name="TEMPERATURE" NumberOfComponents="1" type="Float64" format="ascii">
20.0 20.0 20.0 20.0 20.0 20.0 20.0 20.0 20.0 20.1 20.0 20.0 20.0 20.0 20.0 20.0 20.0 20.0 20.0 20.0 20.0 20.0 20.0 20.1 20.1 20.1 20.1 20.1 20.1 20.1 20.1 20.1 20.1 20.1 20.1 20.1 20.1 20.1 20.1 20.1 20.1 20.1 20.1 20.1 20.1 20.1 20.1 20.1 20.1 20.1 20.1 20.1 20.1 20.1 20.2 20.2 20.2 20.2 20.2 20.2 20.2 20.2 20.2 20.2 20.2 20.1 20.1 20.1 20.1 20.1 20.1 20.2 20.2 20.2 20.2 20.2 20.1 20.1 20.2 20.2 20.2 20.3 20.3 20.3 20.3 20.3 20.3 20.3 20.3 20.3 20.2 20.2 20.2 20.2 20.2 20.2 20.3 20.3 20.3 20.3 20.3 20.2 20.1 20.0 20.3 20.3 20.3 20.4 20.4 20.4 20.4 20.4 20.4 20.4 20.4 20.3 20.3 20.3 20.3 20.3 20.3 20.4 20.4 20.4 20.4 20.4 20.3 20.2 20.1 20.0 20.4 20.4 20.4 20.5 20.5 20.5 20.5 20.5 20.5 20.5 20.5 20.4 20.4 20.4 20.4 20.5 20.5 20.5 20.5 20.5 20.5 20.4 20.3 20.2 20.1 20.0 20.5 20.5 20.5 20.6 20.6 20.6 20.6 20.6 20.6 20.6 20.6 20.6 20.6 20.6 20.6 20.6 20.6 20.6 20.6 20.6 20.5 20.4 20.3 20.2 20.1 20.0 20.6 20.6 20.7 20.7 20.7 20.7 20.7 20.7 20.8 20.8 20.8 20.8 20.7 20.8 20.8 20.8 20.8 20.7 20.7 20.6 20.5 20.4 20.3 20.2 20.1 20.0 20.7 20.8 20.8 20.9 20.9 20.9 20.9 21.0 21.0 21.0 21.0 20.9 20.9 20.9 20.9 20.9 20.9 20.8 20.8 20.7 20.5 20.4 20.3 20.2 20.1 20.0 20.9 21.0 21.0 21.1 21.1 21.1 21.1 21.2 21.3 21.3 21.2 21.2 21.1 21.1 21.1 21.0 21.0 20.9 20.8 20.7 20.5 20.4 20.3 20.2 20.1 20.0 21.1 21.2 21.2 21.3 21.4 21.4 21.4 21.5 21.6 21.5 21.4 21.4 21.3 21.3 21.2 21.1 21.1 21.0 20.8 20.7 20.5 20.4 20.3 20.2 20.1 20.0 21.3 21.4 21.5 21.6 21.7 21.7 21.8 21.9 21.9 21.8 21.7 21.6 21.5 21.5 21.4 21.3 21.2 21.0 20.9 20.7 20.5 20.4 20.3 20.2 20.1 20.0 21.5 21.6 21.7 21.9 22.1 22.2 22.2 22.2 22.2 22.1 21.9 21.8 21.7 21.6 21.5 21.4 21.2 21.1 20.9 20.7 20.5 20.4 20.3 20.2 20.1 20.0 21.7 21.8 22.0 22.2 22.5 22.7 22.7 22.6 22.6 22.4 22.2 22.1 21.9 21.8 21.7 21.5 21.3 21.1 20.9 20.7 20.5 20.4 20.3 20.2 20.1 20.0 21.9 22.1 22.3 22.5 22.8 23.1 23.2 23.3 23.1 22.8 22.5 22.4 22.2 22.0 21.8 21.6 21.4 21.1 20.9 20.7 20.5 20.4 20.3 20.2 20.1 20.0 22.2 22.4 22.7 23.0 23.3 23.6 24.0 24.0 23.7 23.2 22.9 22.7 22.4 22.2 21.9 21.7 21.4 21.1 20.9 20.7 20.5 20.4 20.3 20.2 20.1 20.0 22.5 22.7 23.1 23.5 24.0 24.6 24.9 24.7 24.3 23.7 23.3 23.0 22.7 22.4 22.0 21.7 21.4 21.1 20.9 20.7 20.6 20.4 20.3 20.2 20.1 20.1 22.8 23.2 23.6 24.2 24.8 25.5 25.9 25.6 25.0 24.3 23.7 23.3 22.9 22.5 22.1 21.7 21.4 21.1 20.9 20.8 20.6 20.5 20.4 20.2 20.1 20.1 23.2 23.7 24.3 25.1 25.9 26.8 27.1 26.8 25.9 24.9 24.2 23.7 23.2 22.7 22.2 21.8 21.5 21.2 21.0 20.9 20.7 20.6 20.4 20.3 20.1 20.1 23.8 24.4 25.2 26.5 28.7 31.0 31.6 30.3 27.8 26.0 25.0 24.1 23.5 22.9 22.4 22.0 21.6 21.4 21.1 21.0 20.8 20.6 20.4 20.3 20.1 20.1 24.9 25.7 27.0 29.4 31.7 34.4 35.2 33.6 30.6 27.6 26.1 24.7 23.8 23.2 22.6 22.1 21.7 21.4 21.2 21.0 20.8 20.6 20.4 20.3 20.1 20.1 25.6 27.0 28.8 32.5 35.1 20.0 20.0 34.4 32.0 28.6 26.8 25.2 24.1 23.3 22.7 22.1 21.7 21.4 21.2 21.0 20.7 20.6 20.4 20.2 20.1 20.1 25.5 27.2 28.7 33.0 36.6 20.0 20.0 34.8 31.8 28.0 26.5 25.2 24.1 23.2 22.6 22.1 21.7 21.4 21.1 20.9 20.7 20.6 20.4 20.3 20.1 20.1 25.0 26.1 27.2 30.7 35.2 37.9 36.4 34.2 30.4 26.5 25.6 24.7 23.7 23.0 22.4 22.0 21.7 21.4 21.1 20.9 20.8 20.6 20.4 20.3 20.1 20.1 24.0 24.7 25.5 27.6 31.3 33.3 32.7 31.1 28.0 25.5 24.6 24.0 23.3 22.8 22.3 21.9 21.6 21.3 21.1 20.9 20.8 20.6 20.4 20.3 20.1 20.1 22.6 23.8 24.5 25.8 27.0 27.6 27.8 27.3 26.0 24.8 24.1 23.5 23.0 22.6 22.1 21.8 21.5 21.2 21.0 20.9 20.7 20.6 20.4 20.3 20.1 20.1 20.0 20.0 20.0 20.0 20.0 20.0 20.0 20.0 20.0 20.0 20.0 20.0 20.0 20.0 20.0 20.0 20.0 20.0 20.0 20.0 20.0 20.0 20.0 20.1 20.1 20.1 20.1 20.1 20.1 20.1 20.1 20.1 20.1 20.1 20.1 20.1 20.1 20.1 20.1 20.1 20.1 20.1 20.1 20.1 20.1 20.1 20.1 20.1 20.1 20.1 20.1 20.1 20.1 20.1 20.1 20.2 20.2 20.2 20.2 20.2 20.2 20.2 20.2 20.2 20.1 20.1 20.1 20.1 20.1 20.1 20.1 20.1 20.2 20.2 20.2 20.2 20.1 20.1 20.2 20.2 20.2 20.2 20.3 20.2 20.2 20.3 20.3 20.3 20.3 20.2 20.2 20.2 20.2 20.2 20.2 20.2 20.2 20.3 20.3 20.3 20.3 20.2 20.1 20.0 20.3 20.3 20.3 20.3 20.3 20.3 20.3 20.4 20.4 20.4 20.4 20.3 20.3 20.3 20.3 20.3 20.3 20.3 20.4 20.4 20.4 20.4 20.3 20.2 20.1 20.0 20.3 20.4 20.4 20.4 20.4 20.4 20.4 20.5 20.5 20.5 20.5 20.4 20.4 20.4 20.4 20.5 20.5 20.5 20.5 20.5 20.5 20.4 20.3 20.2 20.1 20.0 20.4 20.5 20.5 20.5 20.6 20.6 20.6 20.6 20.6 20.6 20.6 20.6 20.6 20.6 20.6 20.6 20.6 20.6 20.6 20.5 20.5 20.4 20.3 20.2 20.1 20.0 20.6 20.6 20.6 20.7 20.7 20.7 20.7 20.7 20.8 20.8 20.8 20.7 20.7 20.7 20.8 20.8 20.7 20.7 20.7 20.6 20.5 20.4 20.3 20.1 20.1 20.0 20.7 20.8 20.8 20.9 20.9 20.9 20.9 21.0 21.0 21.0 21.0 20.9 20.9 20.9 20.9 20.9 20.8 20.8 20.7 20.6 20.5 20.4 20.2 20.1 20.1 20.0 20.9 20.9 21.0 21.1 21.1 21.2 21.2 21.2 21.3 21.3 21.2 21.2 21.1 21.1 21.1 21.0 20.9 20.9 20.8 20.6 20.5 20.4 20.2 20.1 20.1 20.0 21.1 21.2 21.2 21.4 21.4 21.5 21.5 21.6 21.6 21.5 21.4 21.4 21.3 21.3 21.2 21.1 21.0 20.9 20.8 20.7 20.5 20.4 20.2 20.2 20.1 20.0 21.3 21.4 21.5 21.6 21.7 21.8 21.9 22.0 22.0 21.8 21.7 21.6 21.5 21.4 21.3 21.2 21.1 21.0 20.8 20.7 20.5 20.4 20.2 20.2 20.1 20.0 21.5 21.6 21.8 21.9 22.1 22.2 22.3 22.3 22.3 22.1 21.9 21.8 21.7 21.6 21.5 21.4 21.2 21.1 20.9 20.7 20.5 20.4 20.3 20.2 20.1 20.0 21.7 21.8 22.0 22.3 22.5 22.8 22.8 22.8 22.7 22.5 22.3 22.1 21.9 21.8 21.6 21.5 21.3 21.1 20.9 20.7 20.5 20.4 20.3 20.2 20.1 20.0 21.9 22.1 22.4 22.7 23.0 23.3 23.4 23.4 23.2 22.9 22.6 22.4 22.2 22.0 21.8 21.6 21.4 21.1 20.9 20.7 20.5 20.4 20.3 20.2 20.1 20.0 22.2 22.5 22.8 23.1 23.5 23.9 24.2 24.2 23.8 23.3 23.0 22.7 22.5 22.2 21.9 21.7 21.4 21.1 20.9 20.7 20.5 20.4 20.3 20.2 20.1 20.0 22.6 22.9 23.3 23.7 24.2 24.9 25.2 24.9 24.4 23.9 23.4 23.1 22.7 22.4 22.1 21.7 21.4 21.1 20.9 20.7 20.5 20.4 20.3 20.2 20.1 20.1 22.9 23.3 23.8 24.5 25.1 26.0 26.4 25.9 25.2 24.5 23.9 23.5 23.0 22.6 22.2 21.8 21.5 21.2 20.9 20.7 20.6 20.5 20.3 20.2 20.1 20.1 23.4 23.9 24.8 25.8 26.8 28.0 28.5 27.7 26.2 25.2 24.5 23.9 23.3 22.8 22.3 21.9 21.6 21.3 21.0 20.8 20.7 20.5 20.4 20.3 20.1 20.1 24.0 24.8 27.9 30.6 32.4 35.6 36.5 33.7 29.2 26.3 25.3 24.4 23.6 23.0 22.5 22.1 21.7 21.4 21.1 20.9 20.8 20.6 20.4 20.3 20.1 20.1 25.1 26.4 30.2 37.3 60.0 113.7 110.0 54.1 33.1 28.5 26.4 25.1 24.0 23.3 22.7 22.2 21.7 21.4 21.2 21.0 20.8 20.6 20.4 20.3 20.1 20.1 26.1 27.8 30.3 40.5 100.5 310.0 288.7 81.7 37.0 30.1 27.2 25.6 24.4 23.6 22.8 22.3 21.8 21.4 21.2 20.9 20.7 20.6 20.4 20.2 20.1 20.1 26.0 27.7 30.5 40.0 118.8 374.6 382.5 136.7 50.3 30.9 26.8 25.5 24.4 23.6 22.8 22.2 21.8 21.4 21.2 20.9 20.7 20.5 20.4 20.2 20.1 20.1 25.1 26.4 28.7 34.5 77.1 170.0 202.8 123.5 51.2 29.1 25.8 24.9 24.0 23.2 22.6 22.1 21.7 21.4 21.1 20.9 20.8 20.6 20.4 20.3 20.1 20.1 24.1 24.9 26.0 28.4 34.2 46.3 60.2 54.2 34.5 26.1 24.9 24.1 23.5 22.9 22.4 22.0 21.6 21.3 21.1 20.9 20.7 20.6 20.4 20.3 20.1 20.1 22.8 24.0 24.8 26.0 27.6 29.1 29.7 28.9 26.7 25.1 24.3 23.7 23.1 22.7 22.2 21.8 21.5 21.2 21.0 20.8 20.7 20.5 20.4 20.3 20.1 20.1 20.0 20.0 20.0 20.0 20.0 20.0 20.0 20.0 20.0 20.0 20.0 20.0 20.0 20.0 20.0 20.0 20.0 20.0 20.0 20.0 20.0 20.0 20.0 20.1 20.1 20.1 20.1 20.1 20.1 20.1 20.1 20.1 20.1 20.1 20.1 20.1 20.1 20.1 20.1 20.1 20.1 20.1 20.1 20.1 20.1 20.1 20.1 20.1 20.1 20.1 20.1 20.1 20.1 20.1 20.1 20.1 20.1 20.1 20.1 20.2 20.2 20.2 20.2 20.1 20.1 20.1 20.1 20.1 20.1 20.1 20.1 20.1 20.1 20.2 20.2 20.2 20.1 20.1 20.2 20.2 20.2 20.2 20.2 20.2 20.2 20.2 20.3 20.3 20.2 20.2 20.2 20.2 20.2 20.2 20.2 20.2 20.2 20.2 20.2 20.2 20.2 20.2 20.1 20.0 20.2 20.2 20.3 20.3 20.3 20.3 20.3 20.3 20.3 20.3 20.3 20.3 20.3 20.3 20.3 20.3 20.3 20.3 20.3 20.3 20.3 20.3 20.3 20.2 20.1 20.0 20.3 20.3 20.4 20.4 20.4 20.4 20.4 20.4 20.5 20.5 20.4 20.4 20.4 20.4 20.4 20.4 20.4 20.4 20.4 20.4 20.4 20.3 20.2 20.1 20.1 20.0 20.4 20.4 20.5 20.5 20.5 20.5 20.6 20.6 20.6 20.6 20.6 20.6 20.5 20.5 20.6 20.6 20.5 20.5 20.5 20.5 20.4 20.3 20.2 20.1 20.1 20.0 20.5 20.6 20.6 20.7 20.7 20.7 20.7 20.8 20.8 20.8 20.8 20.7 20.7 20.7 20.7 20.7 20.6 20.6 20.6 20.5 20.4 20.3 20.2 20.1 20.1 20.0 20.7 20.7 20.8 20.9 20.9 20.9 21.0 21.0 21.1 21.0 21.0 20.9 20.9 20.9 20.8 20.8 20.7 20.7 20.6 20.5 20.5 20.3 20.2 20.1 20.1 20.0 20.9 20.9 21.0 21.1 21.2 21.2 21.3 21.3 21.3 21.3 21.2 21.1 21.1 21.0 21.0 20.9 20.8 20.8 20.7 20.6 20.5 20.3 20.2 20.1 20.1 20.0 21.1 21.1 21.2 21.4 21.5 21.6 21.6 21.7 21.7 21.6 21.4 21.3 21.3 21.2 21.1 21.0 20.9 20.8 20.7 20.6 20.5 20.3 20.2 20.1 20.1 20.0 21.2 21.4 21.5 21.7 21.8 21.9 22.0 22.1 22.0 21.8 21.7 21.6 21.5 21.4 21.3 21.1 21.0 20.9 20.8 20.6 20.5 20.3 20.2 20.1 20.1 20.0 21.5 21.6 21.8 22.0 22.2 22.4 22.5 22.5 22.4 22.2 22.0 21.8 21.7 21.6 21.4 21.3 21.2 21.0 20.8 20.7 20.5 20.3 20.2 20.1 20.1 20.0 21.7 21.9 22.1 22.4 22.7 22.9 23.1 23.0 22.8 22.5 22.3 22.1 22.0 21.8 21.6 21.4 21.3 21.1 20.9 20.7 20.5 20.3 20.2 20.2 20.1 20.0 22.0 22.2 22.5 22.8 23.2 23.5 23.8 23.7 23.3 23.0 22.7 22.5 22.2 22.0 21.8 21.6 21.3 21.1 20.9 20.7 20.5 20.3 20.2 20.2 20.1 20.0 22.3 22.6 23.0 23.5 24.0 24.4 24.7 24.5 24.0 23.5 23.2 22.8 22.5 22.3 22.0 21.7 21.4 21.1 20.9 20.7 20.5 20.4 20.3 20.2 20.1 20.0 22.7 23.1 23.6 24.2 24.9 25.6 25.9 25.4 24.7 24.2 23.7 23.3 22.9 22.5 22.1 21.8 21.5 21.2 20.9 20.7 20.5 20.4 20.3 20.2 20.1 20.0 23.2 23.7 24.3 25.3 26.4 27.5 28.3 27.2 25.6 24.9 24.3 23.7 23.2 22.7 22.3 21.9 21.5 21.2 20.9 20.7 20.6 20.4 20.3 20.2 20.1 20.1 23.7 24.4 26.0 28.5 31.3 32.6 34.9 33.9 28.3 25.8 25.0 24.2 23.6 23.0 22.5 22.1 21.7 21.3 21.0 20.8 20.6 20.5 20.4 20.2 20.1 20.1 24.4 25.6 34.5 50.9 63.3 63.4 57.4 48.2 34.7 27.3 25.8 24.9 24.0 23.3 22.7 22.3 21.8 21.4 21.1 20.9 20.7 20.6 20.4 20.3 20.1 20.1 25.7 28.3 39.9 72.3 132.6 191.8 167.4 85.4 40.7 30.0 27.1 25.7 24.6 23.7 23.0 22.4 21.9 21.5 21.2 20.9 20.7 20.6 20.4 20.2 20.1 20.1 26.8 30.5 37.8 76.8 193.2 347.5 324.0 151.4 54.8 32.2 28.1 26.4 25.1 24.1 23.2 22.5 22.0 21.5 21.2 20.9 20.7 20.5 20.4 20.2 20.1 20.1 26.8 29.8 38.5 83.8 218.9 388.6 390.7 220.7 80.3 33.7 27.8 26.3 25.1 24.1 23.2 22.5 22.0 21.5 21.2 20.9 20.7 20.5 20.4 20.2 20.1 20.1 25.9 27.7 35.8 64.7 140.7 228.7 254.4 176.0 70.3 31.2 26.7 25.4 24.5 23.7 22.9 22.3 21.9 21.5 21.2 20.9 20.7 20.5 20.4 20.2 20.1 20.1 24.7 25.7 29.3 35.6 45.4 58.9 75.1 66.0 37.8 27.0 25.6 24.6 23.8 23.2 22.6 22.1 21.7 21.4 21.1 20.9 20.7 20.5 20.4 20.2 20.1 20.1 23.1 24.5 25.5 27.9 31.0 32.2 31.6 30.0 27.4 25.7 24.9 24.1 23.4 22.9 22.4 21.9 21.6 21.2 21.0 20.8 20.6 20.5 20.4 20.2 20.1 20.1 20.0 20.0 20.0 20.0 20.0 20.0 20.0 20.0 20.0 20.0 20.0 20.0 20.0 20.0 20.0 20.0 20.0 20.0 20.0 20.0 20.0 20.0 20.0 20.1 20.1 20.1 20.1 20.1 20.1 20.1 20.1 20.1 20.1 20.1 20.1 20.1 20.1 20.1 20.1 20.1 20.1 20.1 20.1 20.1 20.1 20.1 20.1 20.1 20.1 20.1 20.1 20.1 20.1 20.1 20.1 20.1 20.1 20.1 20.1 20.2 20.2 20.2 20.2 20.1 20.1 20.1 20.1 20.1 20.1 20.1 20.1 20.1 20.1 20.1 20.2 20.1 20.1 20.1 20.2 20.2 20.2 20.2 20.2 20.2 20.2 20.2 20.3 20.3 20.2 20.2 20.2 20.2 20.2 20.2 20.2 20.2 20.2 20.2 20.2 20.2 20.2 20.2 20.1 20.0 20.2 20.3 20.3 20.3 20.3 20.3 20.3 20.3 20.4 20.4 20.3 20.3 20.3 20.3 20.3 20.3 20.3 20.3 20.3 20.3 20.3 20.3 20.2 20.2 20.1 20.0 20.3 20.3 20.4 20.4 20.4 20.4 20.4 20.5 20.5 20.5 20.5 20.4 20.4 20.4 20.4 20.4 20.4 20.4 20.4 20.4 20.3 20.3 20.2 20.1 20.1 20.0 20.4 20.5 20.5 20.6 20.6 20.6 20.6 20.6 20.7 20.6 20.6 20.6 20.6 20.6 20.5 20.5 20.5 20.5 20.5 20.4 20.4 20.3 20.2 20.1 20.1 20.0 20.6 20.6 20.7 20.7 20.8 20.8 20.8 20.9 20.9 20.8 20.8 20.7 20.7 20.7 20.7 20.7 20.6 20.6 20.5 20.5 20.4 20.3 20.2 20.1 20.1 20.0 20.7 20.8 20.9 20.9 21.0 21.0 21.1 21.1 21.1 21.1 21.0 20.9 20.9 20.9 20.8 20.8 20.7 20.6 20.6 20.5 20.4 20.3 20.2 20.1 20.1 20.0 20.9 21.0 21.1 21.2 21.3 21.3 21.4 21.4 21.4 21.3 21.2 21.1 21.1 21.0 20.9 20.9 20.8 20.7 20.6 20.6 20.4 20.3 20.2 20.1 20.1 20.0 21.1 21.2 21.3 21.5 21.6 21.7 21.7 21.8 21.7 21.6 21.5 21.3 21.3 21.2 21.1 21.0 20.9 20.8 20.7 20.6 20.5 20.3 20.2 20.1 20.1 20.0 21.3 21.4 21.6 21.8 21.9 22.0 22.1 22.2 22.1 21.9 21.7 21.6 21.5 21.4 21.2 21.1 21.0 20.9 20.8 20.6 20.5 20.3 20.2 20.1 20.1 20.0 21.5 21.6 21.8 22.1 22.3 22.5 22.6 22.6 22.5 22.2 22.0 21.9 21.7 21.6 21.4 21.3 21.1 21.0 20.8 20.7 20.5 20.4 20.2 20.1 20.1 20.0 21.7 21.9 22.2 22.5 22.8 23.0 23.2 23.2 23.0 22.7 22.4 22.2 22.0 21.8 21.6 21.4 21.2 21.1 20.9 20.7 20.5 20.4 20.2 20.2 20.1 20.0 22.0 22.3 22.6 23.0 23.4 23.7 24.0 23.9 23.5 23.1 22.8 22.6 22.3 22.1 21.8 21.6 21.4 21.1 20.9 20.7 20.5 20.4 20.3 20.2 20.1 20.0 22.4 22.7 23.2 23.7 24.2 24.6 24.9 24.8 24.3 23.7 23.3 23.0 22.7 22.3 22.0 21.7 21.5 21.2 20.9 20.7 20.5 20.4 20.3 20.2 20.1 20.0 22.8 23.3 24.0 24.8 25.6 26.5 26.7 26.0 25.2 24.5 23.9 23.5 23.0 22.6 22.2 21.9 21.6 21.2 21.0 20.7 20.5 20.4 20.3 20.2 20.1 20.0 23.3 24.0 25.3 26.6 27.6 29.4 30.6 28.7 26.3 25.4 24.6 24.0 23.4 22.9 22.4 22.0 21.7 21.3 21.0 20.8 20.6 20.4 20.3 20.2 20.1 20.1 24.0 25.2 28.1 31.4 34.6 37.3 40.4 38.1 30.2 26.5 25.5 24.6 23.8 23.2 22.7 22.2 21.8 21.4 21.1 20.9 20.7 20.5 20.4 20.2 20.1 20.1 25.1 27.6 43.5 73.7 93.6 84.2 69.7 59.4 40.6 28.9 26.5 25.4 24.4 23.6 23.0 22.5 22.0 21.6 21.2 21.0 20.7 20.6 20.4 20.3 20.1 20.1 27.4 32.0 61.5 133.3 204.4 210.6 170.0 113.9 59.3 34.7 28.6 26.4 25.1 24.1 23.3 22.7 22.1 21.7 21.3 21.0 20.8 20.6 20.4 20.2 20.1 20.1 29.4 35.9 69.5 166.7 291.5 353.4 327.7 217.7 92.9 39.4 30.3 27.3 25.7 24.6 23.6 22.9 22.2 21.7 21.3 21.0 20.8 20.6 20.4 20.2 20.1 20.1 31.2 44.1 86.5 193.7 319.1 374.1 360.3 246.8 97.3 36.8 29.5 27.2 25.7 24.6 23.6 22.8 22.2 21.7 21.3 21.0 20.8 20.5 20.4 20.2 20.1 20.1 29.6 41.2 82.5 159.9 216.8 215.4 196.6 137.4 58.7 31.1 27.8 26.2 25.0 24.1 23.3 22.6 22.1 21.6 21.3 21.0 20.8 20.6 20.4 20.2 20.1 20.1 25.7 28.8 47.3 78.5 84.1 67.0 57.5 46.7 33.1 27.7 26.3 25.2 24.3 23.5 22.9 22.3 21.9 21.5 21.2 20.9 20.7 20.5 20.4 20.2 20.1 20.1 23.5 25.4 27.5 37.0 41.1 35.5 32.4 29.9 27.8 26.3 25.4 24.5 23.8 23.1 22.6 22.1 21.7 21.4 21.1 20.8 20.6 20.5 20.4 20.2 20.1 20.1 20.0 20.0 20.0 20.0 20.0 20.0 20.0 20.0 20.0 20.0 20.0 20.0 20.0 20.0 20.0 20.0 20.0 20.0 20.0 20.0 20.0 20.0 20.0 20.1 20.1 20.1 20.1 20.1 20.1 20.1 20.1 20.1 20.1 20.1 20.1 20.1 20.1 20.1 20.1 20.1 20.1 20.1 20.1 20.1 20.1 20.1 20.1 20.1 20.1 20.1 20.1 20.1 20.1 20.1 20.2 20.2 20.2 20.2 20.2 20.2 20.2 20.2 20.2 20.1 20.1 20.1 20.1 20.1 20.1 20.1 20.1 20.1 20.1 20.2 20.2 20.2 20.1 20.1 20.2 20.2 20.2 20.3 20.3 20.2 20.3 20.3 20.3 20.3 20.3 20.2 20.2 20.2 20.2 20.2 20.2 20.2 20.2 20.2 20.2 20.2 20.2 20.2 20.1 20.0 20.3 20.3 20.3 20.4 20.4 20.3 20.3 20.4 20.4 20.4 20.4 20.3 20.3 20.3 20.3 20.3 20.3 20.3 20.3 20.3 20.3 20.3 20.2 20.2 20.1 20.0 20.4 20.4 20.4 20.5 20.5 20.5 20.5 20.5 20.6 20.6 20.5 20.5 20.5 20.5 20.5 20.5 20.5 20.4 20.4 20.4 20.4 20.3 20.2 20.2 20.1 20.0 20.5 20.5 20.6 20.6 20.7 20.7 20.7 20.7 20.8 20.7 20.7 20.7 20.6 20.6 20.6 20.6 20.6 20.5 20.5 20.4 20.4 20.3 20.2 20.1 20.1 20.0 20.6 20.7 20.8 20.8 20.9 20.9 20.9 21.0 21.0 21.0 20.9 20.8 20.8 20.8 20.8 20.7 20.7 20.6 20.6 20.5 20.4 20.3 20.2 20.1 20.1 20.0 20.8 20.9 21.0 21.1 21.1 21.1 21.2 21.3 21.3 21.2 21.1 21.0 21.0 21.0 20.9 20.8 20.8 20.7 20.6 20.5 20.5 20.4 20.2 20.1 20.1 20.0 21.0 21.1 21.2 21.3 21.4 21.4 21.5 21.6 21.5 21.4 21.3 21.2 21.2 21.1 21.0 20.9 20.9 20.8 20.7 20.6 20.5 20.4 20.3 20.1 20.1 20.0 21.2 21.3 21.4 21.6 21.7 21.7 21.9 21.9 21.9 21.7 21.6 21.5 21.4 21.3 21.2 21.1 21.0 20.9 20.8 20.6 20.5 20.4 20.3 20.1 20.1 20.0 21.3 21.5 21.7 21.8 22.0 22.1 22.3 22.3 22.2 22.0 21.9 21.7 21.6 21.5 21.3 21.2 21.1 21.0 20.8 20.7 20.5 20.4 20.3 20.2 20.1 20.0 21.6 21.7 21.9 22.2 22.3 22.5 22.8 22.8 22.6 22.4 22.2 22.0 21.9 21.7 21.5 21.4 21.2 21.1 20.9 20.7 20.6 20.4 20.3 20.2 20.1 20.0 21.8 22.0 22.3 22.6 22.8 23.0 23.3 23.4 23.1 22.8 22.6 22.3 22.1 21.9 21.7 21.5 21.3 21.2 21.0 20.8 20.6 20.4 20.3 20.2 20.1 20.0 22.1 22.4 22.7 23.0 23.4 23.7 23.9 24.0 23.7 23.3 23.0 22.7 22.5 22.2 21.9 21.7 21.5 21.2 21.0 20.8 20.6 20.4 20.3 20.2 20.1 20.0 22.4 22.9 23.3 23.7 24.1 24.5 24.9 24.9 24.5 23.9 23.5 23.2 22.8 22.5 22.2 21.9 21.6 21.3 21.1 20.8 20.6 20.4 20.3 20.2 20.1 20.0 22.9 23.6 24.4 25.0 25.7 26.7 27.0 26.3 25.5 24.7 24.2 23.7 23.2 22.8 22.4 22.0 21.7 21.4 21.1 20.9 20.6 20.5 20.3 20.2 20.1 20.0 23.4 24.6 26.3 27.2 26.6 28.5 30.6 28.8 26.6 25.6 24.9 24.2 23.6 23.1 22.6 22.2 21.8 21.5 21.2 20.9 20.7 20.5 20.4 20.2 20.1 20.1 24.2 26.6 30.1 31.8 30.2 33.3 38.2 34.9 29.6 26.9 25.8 24.9 24.1 23.5 22.9 22.4 22.0 21.6 21.3 21.0 20.8 20.6 20.4 20.3 20.1 20.1 25.7 31.8 51.6 81.0 77.2 58.3 58.0 53.2 41.7 31.3 26.9 25.7 24.8 23.9 23.2 22.7 22.2 21.8 21.4 21.1 20.8 20.6 20.5 20.3 20.1 20.1 29.1 40.0 93.6 179.1 172.5 126.2 127.6 112.7 76.2 43.3 29.6 26.8 25.6 24.4 23.6 23.0 22.4 21.9 21.5 21.1 20.8 20.6 20.4 20.3 20.1 20.1 33.1 52.6 133.1 254.5 247.8 221.6 259.5 220.8 126.4 53.4 32.7 28.1 26.2 24.9 24.0 23.2 22.5 21.9 21.5 21.1 20.8 20.6 20.4 20.3 20.1 20.1 39.1 81.9 180.1 297.8 273.2 235.6 276.7 217.7 109.7 47.8 32.1 28.1 26.2 24.9 24.0 23.1 22.5 21.9 21.5 21.1 20.8 20.6 20.4 20.3 20.1 20.1 39.8 89.9 184.1 263.3 218.0 149.1 143.0 100.7 54.5 37.6 29.4 26.8 25.4 24.3 23.6 22.8 22.3 21.8 21.4 21.1 20.8 20.6 20.4 20.3 20.1 20.1 33.8 62.9 107.6 140.8 114.2 69.0 52.9 42.8 37.3 31.5 27.1 25.5 24.6 23.8 23.1 22.6 22.1 21.7 21.3 21.1 20.8 20.6 20.4 20.3 20.1 20.1 27.1 38.8 43.8 51.8 49.4 35.7 33.6 32.7 30.4 27.4 25.8 24.9 24.1 23.4 22.9 22.4 21.9 21.6 21.2 21.0 20.7 20.6 20.4 20.3 20.1 20.1 20.0 20.0 20.0 20.0 20.0 20.0 20.0 20.0 20.1 20.1 20.1 20.0 20.0 20.0 20.0 20.0 20.0 20.0 20.0 20.0 20.0 20.0 20.1 20.1 20.1 20.1 20.1 20.1 20.1 20.1 20.1 20.1 20.1 20.1 20.1 20.1 20.1 20.1 20.1 20.1 20.1 20.1 20.1 20.1 20.1 20.1 20.1 20.1 20.1 20.1 20.1 20.1 20.1 20.2 20.2 20.2 20.2 20.2 20.2 20.2 20.2 20.2 20.2 20.2 20.2 20.2 20.2 20.2 20.2 20.2 20.2 20.2 20.2 20.2 20.2 20.2 20.1 20.1 20.2 20.2 20.3 20.3 20.3 20.3 20.3 20.3 20.3 20.3 20.3 20.3 20.3 20.3 20.3 20.3 20.3 20.3 20.3 20.3 20.3 20.3 20.3 20.2 20.1 20.1 20.3 20.3 20.4 20.4 20.4 20.4 20.4 20.4 20.5 20.5 20.4 20.4 20.4 20.4 20.4 20.4 20.4 20.4 20.4 20.4 20.4 20.3 20.3 20.2 20.1 20.0 20.4 20.5 20.5 20.5 20.5 20.5 20.5 20.6 20.6 20.7 20.6 20.6 20.6 20.6 20.6 20.6 20.5 20.5 20.5 20.5 20.4 20.4 20.3 20.2 20.1 20.0 20.6 20.6 20.7 20.7 20.7 20.7 20.8 20.8 20.9 20.9 20.8 20.8 20.7 20.7 20.7 20.7 20.7 20.6 20.6 20.5 20.5 20.4 20.3 20.2 20.1 20.0 20.7 20.8 20.9 20.9 21.0 21.0 21.0 21.1 21.1 21.1 21.0 21.0 20.9 20.9 20.9 20.8 20.8 20.7 20.6 20.6 20.5 20.4 20.3 20.2 20.1 20.0 20.9 21.0 21.1 21.2 21.2 21.2 21.3 21.4 21.4 21.3 21.2 21.2 21.1 21.1 21.0 20.9 20.9 20.8 20.7 20.6 20.5 20.4 20.3 20.2 20.1 20.0 21.1 21.2 21.3 21.4 21.5 21.5 21.6 21.7 21.7 21.6 21.5 21.4 21.3 21.3 21.2 21.1 21.0 20.9 20.8 20.7 20.6 20.5 20.3 20.2 20.1 20.0 21.2 21.4 21.5 21.7 21.8 21.9 22.0 22.1 22.0 21.9 21.7 21.6 21.5 21.4 21.3 21.2 21.1 21.0 20.9 20.8 20.6 20.5 20.3 20.2 20.1 20.0 21.4 21.6 21.8 21.9 22.1 22.2 22.4 22.5 22.3 22.2 22.0 21.9 21.8 21.6 21.5 21.4 21.2 21.1 21.0 20.8 20.7 20.5 20.3 20.2 20.1 20.0 21.6 21.8 22.0 22.2 22.4 22.6 22.8 22.9 22.7 22.5 22.3 22.2 22.0 21.9 21.7 21.5 21.4 21.2 21.0 20.9 20.7 20.5 20.3 20.2 20.1 20.0 21.8 22.1 22.4 22.6 22.8 23.0 23.3 23.4 23.2 22.9 22.7 22.5 22.3 22.1 21.9 21.7 21.5 21.3 21.1 20.9 20.7 20.5 20.3 20.2 20.1 20.0 22.1 22.4 22.7 23.0 23.3 23.6 24.0 24.0 23.8 23.4 23.1 22.9 22.6 22.4 22.1 21.9 21.7 21.4 21.2 21.0 20.7 20.5 20.3 20.2 20.1 20.0 22.5 23.0 23.4 23.6 23.9 24.4 24.9 25.1 24.6 24.1 23.7 23.3 23.0 22.7 22.4 22.1 21.8 21.5 21.2 21.0 20.7 20.5 20.4 20.2 20.1 20.1 23.2 24.0 24.6 25.0 25.4 26.1 26.7 26.4 25.5 24.8 24.3 23.8 23.4 23.0 22.6 22.2 21.9 21.6 21.3 21.0 20.8 20.5 20.4 20.2 20.1 20.1 24.0 25.4 26.6 26.0 25.5 27.6 29.1 28.1 26.7 25.6 25.0 24.4 23.8 23.3 22.8 22.4 22.1 21.7 21.4 21.1 20.8 20.6 20.4 20.3 20.1 20.1 25.2 28.0 30.3 28.3 26.0 29.9 33.7 32.0 29.1 27.0 25.8 25.0 24.3 23.7 23.1 22.7 22.2 21.8 21.5 21.2 20.9 20.7 20.5 20.3 20.2 20.1 27.4 36.6 55.8 62.7 43.5 36.6 44.6 44.0 39.4 31.8 27.0 25.8 24.9 24.1 23.5 22.9 22.4 22.0 21.6 21.3 21.0 20.7 20.5 20.3 20.2 20.1 35.6 63.2 122.4 140.8 79.8 60.2 83.3 89.2 75.5 44.9 29.3 26.8 25.8 24.7 23.9 23.3 22.7 22.1 21.7 21.3 21.0 20.7 20.5 20.3 20.1 20.1 51.4 102.7 194.1 207.7 126.7 138.2 191.1 188.1 133.6 61.3 34.0 28.5 26.5 25.2 24.2 23.5 22.8 22.2 21.7 21.3 20.9 20.7 20.5 20.3 20.1 20.1 65.7 146.1 254.7 246.0 144.7 156.5 206.9 187.4 125.8 60.5 34.9 28.6 26.4 25.2 24.2 23.4 22.7 22.2 21.7 21.3 20.9 20.7 20.5 20.3 20.1 20.1 72.1 163.6 266.8 251.3 139.5 96.2 104.1 91.2 73.3 48.5 31.0 26.9 25.6 24.5 23.7 23.1 22.6 22.1 21.6 21.3 21.0 20.7 20.5 20.3 20.1 20.1 62.2 129.8 189.3 179.3 109.9 58.8 50.6 50.6 48.7 37.2 27.8 25.7 24.8 24.0 23.3 22.8 22.3 21.9 21.5 21.2 20.9 20.7 20.5 20.3 20.2 20.1 37.9 71.4 93.3 83.2 55.3 35.4 34.6 36.2 33.3 28.2 26.0 25.0 24.3 23.7 23.1 22.6 22.2 21.8 21.4 21.1 20.9 20.6 20.5 20.3 20.1 20.1 20.0 20.0 20.0 20.0 20.0 20.0 20.0 20.0 20.1 20.1 20.1 20.1 20.0 20.0 20.0 20.0 20.0 20.0 20.0 20.0 20.0 20.1 20.1 20.1 20.1 20.1 20.1 20.1 20.1 20.1 20.1 20.1 20.1 20.1 20.1 20.1 20.1 20.1 20.1 20.1 20.1 20.1 20.1 20.1 20.1 20.1 20.1 20.1 20.1 20.2 20.1 20.1 20.1 20.2 20.2 20.2 20.2 20.2 20.2 20.2 20.2 20.2 20.2 20.2 20.2 20.2 20.2 20.2 20.2 20.2 20.2 20.2 20.2 20.2 20.3 20.2 20.2 20.1 20.2 20.2 20.3 20.3 20.3 20.3 20.3 20.3 20.3 20.3 20.3 20.3 20.3 20.3 20.3 20.3 20.3 20.3 20.4 20.4 20.4 20.3 20.3 20.3 20.1 20.1 20.3 20.3 20.4 20.4 20.4 20.4 20.4 20.4 20.5 20.5 20.5 20.5 20.5 20.5 20.5 20.5 20.5 20.5 20.5 20.5 20.4 20.4 20.4 20.3 20.1 20.1 20.4 20.5 20.5 20.5 20.6 20.6 20.6 20.6 20.7 20.7 20.7 20.7 20.6 20.6 20.7 20.7 20.6 20.6 20.6 20.6 20.5 20.5 20.4 20.2 20.1 20.0 20.6 20.7 20.7 20.7 20.8 20.8 20.8 20.9 21.0 21.0 20.9 20.9 20.8 20.8 20.8 20.8 20.8 20.7 20.7 20.6 20.6 20.5 20.4 20.2 20.1 20.0 20.8 20.8 20.9 21.0 21.0 21.0 21.1 21.2 21.2 21.2 21.1 21.1 21.0 21.0 21.0 20.9 20.9 20.8 20.8 20.7 20.6 20.5 20.4 20.2 20.1 20.0 20.9 21.0 21.1 21.2 21.3 21.3 21.4 21.5 21.5 21.5 21.4 21.3 21.2 21.2 21.1 21.1 21.0 20.9 20.8 20.8 20.7 20.5 20.4 20.2 20.1 20.0 21.1 21.2 21.4 21.5 21.5 21.6 21.7 21.8 21.8 21.7 21.6 21.5 21.4 21.3 21.3 21.2 21.1 21.0 20.9 20.8 20.7 20.6 20.4 20.2 20.1 20.0 21.3 21.4 21.6 21.7 21.8 21.9 22.1 22.2 22.1 21.9 21.8 21.7 21.6 21.5 21.4 21.3 21.2 21.1 21.0 20.9 20.7 20.6 20.4 20.2 20.1 20.1 21.4 21.6 21.8 21.9 22.1 22.3 22.4 22.5 22.4 22.2 22.0 21.9 21.8 21.7 21.6 21.5 21.3 21.2 21.1 21.0 20.8 20.6 20.4 20.2 20.1 20.1 21.6 21.8 22.1 22.2 22.4 22.6 22.8 23.0 22.8 22.5 22.4 22.2 22.1 21.9 21.8 21.6 21.5 21.4 21.2 21.0 20.8 20.6 20.4 20.2 20.1 20.1 21.8 22.1 22.4 22.6 22.8 23.0 23.3 23.4 23.2 22.9 22.7 22.6 22.4 22.2 22.0 21.8 21.6 21.5 21.3 21.1 20.8 20.6 20.4 20.2 20.1 20.1 22.1 22.4 22.7 23.0 23.3 23.7 24.0 24.1 23.8 23.5 23.2 22.9 22.7 22.5 22.2 22.0 21.8 21.6 21.3 21.1 20.8 20.6 20.4 20.2 20.1 20.1 22.9 23.2 23.6 23.8 23.9 24.4 25.0 25.1 24.6 24.1 23.7 23.4 23.1 22.7 22.5 22.2 21.9 21.7 21.4 21.1 20.9 20.6 20.4 20.2 20.1 20.1 24.3 24.4 25.0 25.2 25.2 25.6 26.2 26.2 25.5 24.8 24.3 23.9 23.5 23.1 22.7 22.4 22.1 21.8 21.5 21.2 20.9 20.6 20.4 20.3 20.1 20.1 25.8 26.2 25.7 25.0 26.3 27.6 27.6 27.6 26.8 25.6 24.9 24.4 23.9 23.4 23.0 22.6 22.2 21.9 21.5 21.2 20.9 20.7 20.5 20.3 20.1 20.1 28.4 29.0 27.4 25.7 29.0 31.1 30.7 32.1 30.3 26.9 25.8 25.0 24.4 23.8 23.3 22.8 22.4 22.0 21.7 21.3 21.0 20.7 20.5 20.3 20.2 20.1 31.6 40.2 45.2 39.1 39.0 40.2 38.8 42.1 37.9 30.2 27.1 25.7 25.0 24.3 23.6 23.1 22.6 22.2 21.8 21.4 21.1 20.8 20.5 20.4 20.2 20.1 44.4 82.0 98.6 70.4 59.7 64.1 64.2 76.2 64.1 38.6 29.4 26.7 25.8 24.9 24.0 23.4 22.9 22.3 21.9 21.4 21.1 20.7 20.5 20.3 20.2 20.1 79.7 146.4 159.9 110.5 120.0 151.1 151.8 162.4 121.5 56.5 34.6 28.3 26.6 25.4 24.4 23.6 23.0 22.4 21.9 21.4 21.0 20.7 20.5 20.3 20.1 20.1 110.5 199.7 205.9 131.2 141.2 178.3 166.7 171.2 134.5 64.4 36.2 28.5 26.5 25.3 24.3 23.5 23.0 22.4 21.9 21.4 21.0 20.7 20.5 20.3 20.1 20.1 105.7 195.2 236.1 178.9 122.9 102.4 83.4 90.3 87.6 53.5 31.9 26.9 25.6 24.7 23.9 23.2 22.8 22.3 21.8 21.4 21.0 20.8 20.5 20.3 20.2 20.1 73.3 131.8 198.3 192.1 113.4 59.8 46.1 50.2 50.0 37.9 28.2 25.7 24.9 24.2 23.5 23.0 22.6 22.1 21.7 21.4 21.0 20.8 20.5 20.3 20.2 20.1 38.2 67.0 106.4 106.6 66.3 40.4 34.6 35.2 32.1 27.9 26.1 25.1 24.3 23.7 23.2 22.8 22.4 22.0 21.6 21.3 21.0 20.7 20.5 20.3 20.2 20.1 20.0 20.0 20.0 20.0 20.0 20.0 20.0 20.0 20.1 20.1 20.1 20.1 20.0 20.0 20.0 20.0 20.0 20.1 20.1 20.1 20.1 20.1 20.1 20.1 20.1 20.1 20.1 20.1 20.1 20.1 20.1 20.1 20.1 20.1 20.1 20.1 20.1 20.1 20.1 20.1 20.1 20.1 20.1 20.1 20.1 20.1 20.1 20.1 20.2 20.2 20.2 20.1 20.1 20.2 20.2 20.2 20.2 20.2 20.2 20.2 20.2 20.2 20.2 20.2 20.2 20.2 20.2 20.2 20.2 20.2 20.3 20.3 20.3 20.3 20.3 20.3 20.2 20.1 20.2 20.2 20.3 20.3 20.3 20.3 20.3 20.3 20.3 20.4 20.4 20.3 20.3 20.3 20.4 20.4 20.4 20.4 20.4 20.4 20.4 20.4 20.4 20.3 20.2 20.1 20.3 20.4 20.4 20.4 20.4 20.4 20.4 20.5 20.5 20.6 20.5 20.5 20.5 20.5 20.5 20.6 20.6 20.6 20.6 20.5 20.5 20.5 20.4 20.3 20.1 20.1 20.5 20.5 20.5 20.6 20.6 20.6 20.6 20.7 20.8 20.8 20.8 20.7 20.7 20.7 20.7 20.7 20.7 20.7 20.7 20.6 20.6 20.5 20.4 20.3 20.1 20.1 20.6 20.7 20.7 20.8 20.8 20.8 20.9 21.0 21.0 21.1 21.0 20.9 20.9 20.9 20.9 20.9 20.8 20.8 20.7 20.7 20.6 20.6 20.4 20.3 20.1 20.1 20.8 20.9 20.9 21.0 21.0 21.1 21.1 21.2 21.3 21.3 21.2 21.1 21.1 21.1 21.0 21.0 20.9 20.9 20.8 20.8 20.7 20.6 20.4 20.3 20.1 20.1 21.0 21.1 21.2 21.2 21.3 21.3 21.4 21.6 21.6 21.5 21.4 21.3 21.2 21.2 21.2 21.1 21.0 21.0 20.9 20.8 20.7 20.6 20.5 20.3 20.1 20.1 21.1 21.2 21.4 21.5 21.5 21.6 21.7 21.9 21.9 21.7 21.6 21.5 21.4 21.3 21.3 21.2 21.1 21.0 21.0 20.9 20.8 20.6 20.5 20.3 20.1 20.1 21.3 21.4 21.6 21.7 21.8 21.9 22.1 22.2 22.1 21.9 21.8 21.7 21.6 21.5 21.4 21.3 21.2 21.2 21.1 21.0 20.8 20.7 20.5 20.3 20.1 20.1 21.4 21.6 21.8 21.9 22.1 22.2 22.4 22.5 22.4 22.2 22.0 21.9 21.8 21.7 21.6 21.5 21.4 21.3 21.2 21.0 20.9 20.7 20.5 20.3 20.1 20.1 21.6 21.8 22.0 22.2 22.3 22.6 22.8 22.9 22.8 22.5 22.3 22.2 22.1 21.9 21.8 21.6 21.5 21.4 21.3 21.1 20.9 20.7 20.4 20.3 20.1 20.1 21.8 22.0 22.3 22.5 22.8 23.0 23.3 23.4 23.2 22.9 22.7 22.5 22.3 22.2 22.0 21.8 21.7 21.5 21.3 21.1 20.9 20.7 20.4 20.3 20.1 20.1 22.1 22.4 22.7 23.0 23.3 23.7 24.0 24.0 23.7 23.4 23.1 22.9 22.7 22.4 22.2 22.0 21.8 21.6 21.4 21.2 20.9 20.7 20.4 20.3 20.1 20.1 23.5 23.4 23.6 23.7 23.8 24.3 24.9 24.9 24.4 24.0 23.6 23.3 23.0 22.7 22.4 22.2 22.0 21.7 21.5 21.2 20.9 20.7 20.4 20.3 20.1 20.1 26.3 25.4 25.2 25.0 24.7 25.0 25.7 25.8 25.3 24.7 24.2 23.8 23.4 23.0 22.7 22.4 22.1 21.8 21.6 21.3 21.0 20.7 20.4 20.3 20.1 20.1 29.2 29.2 27.1 26.0 26.6 26.1 26.4 27.2 26.6 25.5 24.9 24.3 23.8 23.4 22.9 22.6 22.3 22.0 21.7 21.3 21.0 20.7 20.5 20.3 20.1 20.1 33.7 34.1 31.0 30.4 33.0 30.3 29.9 33.5 31.3 26.8 25.7 24.9 24.3 23.8 23.3 22.9 22.5 22.2 21.8 21.4 21.1 20.8 20.5 20.3 20.2 20.1 39.3 48.4 53.4 58.5 60.0 45.8 42.2 46.9 38.8 29.3 27.1 25.7 24.9 24.3 23.7 23.2 22.8 22.4 21.9 21.5 21.1 20.8 20.5 20.4 20.2 20.1 55.2 84.8 93.9 101.6 103.0 78.3 76.1 81.1 58.7 35.9 29.6 26.8 25.7 24.9 24.1 23.5 23.0 22.5 22.0 21.5 21.1 20.8 20.5 20.3 20.2 20.1 94.9 138.0 130.8 144.2 167.6 151.6 147.6 152.3 109.5 51.9 34.4 28.1 26.4 25.4 24.4 23.7 23.1 22.6 22.0 21.5 21.1 20.7 20.5 20.3 20.1 20.1 121.9 167.2 140.2 147.9 181.7 164.1 141.3 153.4 130.2 63.3 36.3 28.3 26.3 25.4 24.5 23.7 23.1 22.6 22.0 21.5 21.1 20.7 20.5 20.3 20.1 20.1 94.4 131.4 148.1 163.7 146.1 100.3 68.4 79.9 85.8 54.8 33.7 27.1 25.6 24.9 24.2 23.4 22.9 22.5 22.0 21.5 21.1 20.8 20.5 20.3 20.2 20.1 49.5 68.2 126.0 165.7 120.3 65.4 42.3 42.4 43.7 37.4 29.5 25.9 24.9 24.2 23.7 23.1 22.7 22.3 21.9 21.5 21.1 20.8 20.5 20.4 20.2 20.1 27.6 34.5 63.3 86.7 68.0 42.1 32.5 31.6 29.7 27.6 26.1 25.0 24.3 23.7 23.2 22.7 22.4 22.1 21.7 21.4 21.1 20.8 20.5 20.3 20.2 20.1 20.0 20.0 20.0 20.1 20.1 20.0 20.0 20.1 20.1 20.1 20.1 20.1 20.0 20.0 20.0 20.0 20.1 20.1 20.1 20.1 20.1 20.1 20.1 20.1 20.2 20.2 20.1 20.1 20.1 20.1 20.1 20.1 20.1 20.1 20.1 20.1 20.1 20.1 20.1 20.1 20.1 20.1 20.1 20.1 20.1 20.1 20.2 20.2 20.2 20.2 20.2 20.2 20.1 20.2 20.2 20.2 20.2 20.2 20.2 20.2 20.2 20.2 20.2 20.2 20.2 20.2 20.2 20.2 20.3 20.3 20.3 20.3 20.3 20.3 20.3 20.3 20.2 20.1 20.2 20.2 20.3 20.3 20.3 20.3 20.3 20.3 20.3 20.4 20.4 20.4 20.4 20.4 20.4 20.4 20.4 20.5 20.5 20.5 20.5 20.5 20.4 20.4 20.2 20.1 20.3 20.4 20.4 20.4 20.4 20.4 20.4 20.5 20.5 20.6 20.6 20.6 20.5 20.5 20.6 20.6 20.6 20.6 20.6 20.6 20.6 20.5 20.5 20.3 20.2 20.1 20.5 20.5 20.5 20.6 20.6 20.6 20.6 20.7 20.8 20.8 20.8 20.8 20.7 20.7 20.8 20.8 20.7 20.7 20.7 20.6 20.6 20.6 20.5 20.3 20.2 20.1 20.6 20.7 20.7 20.8 20.8 20.8 20.9 21.0 21.1 21.1 21.0 21.0 20.9 20.9 20.9 20.9 20.8 20.8 20.7 20.7 20.7 20.6 20.5 20.3 20.1 20.1 20.8 20.9 20.9 21.0 21.0 21.1 21.2 21.3 21.3 21.3 21.2 21.1 21.1 21.0 21.0 21.0 20.9 20.9 20.8 20.8 20.7 20.6 20.5 20.3 20.1 20.1 20.9 21.0 21.1 21.2 21.2 21.3 21.5 21.6 21.6 21.5 21.4 21.3 21.2 21.2 21.1 21.1 21.0 20.9 20.9 20.8 20.8 20.7 20.5 20.3 20.1 20.1 21.1 21.2 21.3 21.4 21.5 21.6 21.8 21.9 21.8 21.7 21.5 21.4 21.4 21.3 21.2 21.2 21.1 21.0 21.0 20.9 20.8 20.7 20.5 20.3 20.1 20.1 21.2 21.4 21.5 21.6 21.7 21.9 22.1 22.1 22.1 21.9 21.7 21.6 21.5 21.5 21.4 21.3 21.2 21.1 21.1 21.0 20.9 20.7 20.5 20.3 20.1 20.1 21.4 21.6 21.7 21.9 22.0 22.2 22.4 22.5 22.4 22.1 22.0 21.8 21.7 21.7 21.5 21.4 21.3 21.2 21.2 21.0 20.9 20.7 20.5 20.3 20.1 20.1 21.6 21.8 21.9 22.1 22.3 22.5 22.7 22.8 22.7 22.4 22.2 22.1 22.0 21.8 21.7 21.6 21.5 21.4 21.2 21.1 20.9 20.7 20.5 20.3 20.1 20.1 21.8 22.0 22.3 22.5 22.7 23.0 23.2 23.3 23.1 22.8 22.6 22.4 22.2 22.1 21.9 21.7 21.6 21.5 21.3 21.2 21.0 20.7 20.5 20.3 20.1 20.1 22.0 22.4 22.7 