<?xml version="1.0"?>
<VTKFile type="RectilinearGrid" version="1.0" byte_order="LittleEndian" header_type="UInt64">
<RectilinearGrid WholeExtent="25 50 0 25 0 15">
<Piece Extent="25 50 0 25 0 15">
<Coordinates>
<DataArray type="Float64" Name="Array X-Axis" format="ascii" RangeMin="15.0" RangeMax="30.0">
15.0 15.6 16.2 16.8 17.4 18.0 18.6 19.2 19.8 20.4 21.0 21.6 22.2 22.8 23.4 24.0 24.6 25.2 25.8 26.4 27.0 27.6 28.2 28.8 29.4 30.0 
</DataArray>
<DataArray type="Float64" Name="Array Y-Axis" format="ascii" RangeMin="0.0" RangeMax="15.0">
0.0 0.6 1.2 1.8 2.4 3.0 3.6 4.2 4.8 5.4 6.0 6.6 7.2 7.8 8.4 9.0 9.6 10.2 10.8 11.4 12.0 12.6 13.2 13.8 14.4 15.0 
</DataArray>
<DataArray type="Float64" Name="Array Z-Axis" format="ascii" RangeMin="0.0" RangeMax="9.0">
0.0 0.6 1.2 1.8 2.4 3.0 3.6 4.2 4.8 5.4 6.0 6.6 7.2 7.8 8.4 9.0 
</DataArray>
</Coordinates>
<PointData>
<DataArray Name="TEMPERATURE" NumberOfComponents="1" type="Float64" format="ascii">
20.0 20.0 20.0 20.0 20.0 20.0 20.0 20.0 20.0 20.0 20.0 20.0 20.0 20.0 20.0 20.0 20.0 20.0 20.0 20.0 20.0 20.0 20.0 20.1 20.1 20.1 20.1 20.1 20.1 20.1 20.1 20.1 20.1 20.1 20.1 20.1 20.1 20.1 20.1 20.1 20.1 20.1 20.1 20.1 20.1 20.1 20.1 20.1 20.1 20.1 20.1 20.1 20.1 20.1 20.2 20.2 20.2 20.2 20.2 20.2 20.2 20.2 20.2 20.2 20.1 20.1 20.1 20.1 20.1 20.1 20.1 20.2 20.2 20.2 20.2 20.2 20.1 20.1 20.2 20.2 20.2 20.3 20.3 20.3 20.3 20.3 20.3 20.3 20.3 20.2 20.2 20.2 20.2 20.2 20.2 20.2 20.3 20.3 20.3 20.3 20.3 20.2 20.1 20.0 20.3 20.3 20.3 20.4 20.4 20.4 20.3 20.4 20.4 20.4 20.4 20.3 20.3 20.3 20.3 20.3 20.4 20.4 20.4 20.4 20.4 20.4 20.3 20.2 20.1 20.0 20.4 20.4 20.4 20.4 20.5 20.5 20.5 20.5 20.5 20.5 20.5 20.4 20.4 20.4 20.5 20.5 20.5 20.5 20.5 20.5 20.5 20.4 20.3 20.2 20.1 20.0 20.5 20.5 20.5 20.6 20.6 20.6 20.6 20.6 20.6 20.7 20.6 20.6 20.6 20.6 20.6 20.6 20.6 20.6 20.6 20.6 20.5 20.4 20.3 20.2 20.1 20.0 20.6 20.6 20.7 20.7 20.7 20.7 20.7 20.8 20.8 20.8 20.8 20.8 20.8 20.8 20.8 20.8 20.8 20.7 20.7 20.6 20.5 20.4 20.3 20.2 20.1 20.0 20.8 20.8 20.9 20.9 20.9 20.9 20.9 21.0 21.1 21.1 21.0 21.0 21.0 21.0 20.9 20.9 20.9 20.8 20.7 20.7 20.5 20.4 20.3 20.2 20.1 20.0 20.9 21.0 21.1 21.1 21.2 21.2 21.2 21.3 21.3 21.3 21.2 21.2 21.2 21.1 21.1 21.0 20.9 20.9 20.8 20.7 20.5 20.4 20.3 20.2 20.1 20.0 21.1 21.2 21.3 21.4 21.5 21.5 21.5 21.6 21.6 21.6 21.4 21.4 21.3 21.3 21.2 21.1 21.0 21.0 20.8 20.7 20.5 20.4 20.3 20.2 20.1 20.0 21.3 21.4 21.5 21.7 21.8 21.8 21.9 22.0 22.0 21.8 21.7 21.6 21.5 21.4 21.3 21.2 21.1 21.0 20.9 20.7 20.5 20.4 20.3 20.2 20.1 20.0 21.5 21.6 21.8 21.9 22.1 22.2 22.3 22.3 22.2 22.1 21.9 21.8 21.7 21.6 21.5 21.4 21.2 21.1 20.9 20.7 20.5 20.4 20.3 20.2 20.1 20.0 21.7 21.8 22.0 22.2 22.5 22.7 22.7 22.7 22.7 22.4 22.2 22.1 21.9 21.8 21.6 21.5 21.3 21.1 20.9 20.7 20.5 20.4 20.3 20.2 20.1 20.0 21.9 22.1 22.3 22.6 22.8 23.1 23.3 23.3 23.2 22.8 22.5 22.3 22.2 22.0 21.8 21.6 21.4 21.1 20.9 20.7 20.5 20.4 20.3 20.2 20.1 20.0 22.2 22.4 22.7 23.1 23.5 23.9 24.0 23.9 23.6 23.2 22.9 22.6 22.4 22.2 21.9 21.7 21.4 21.1 20.9 20.7 20.5 20.4 20.3 20.2 20.1 20.0 22.5 22.8 23.1 23.6 24.2 24.7 24.9 24.6 24.2 23.7 23.3 23.0 22.7 22.4 22.1 21.7 21.4 21.1 20.9 20.7 20.6 20.4 20.3 20.2 20.1 20.1 22.8 23.2 23.7 24.2 24.8 25.4 25.9 25.7 25.1 24.3 23.7 23.3 22.9 22.5 22.2 21.8 21.5 21.2 20.9 20.8 20.6 20.5 20.4 20.2 20.1 20.1 23.2 23.7 24.3 25.0 25.7 26.7 27.6 27.2 25.9 24.9 24.2 23.7 23.2 22.7 22.3 21.9 21.6 21.3 21.0 20.8 20.7 20.6 20.4 20.3 20.1 20.1 23.9 24.5 25.4 26.7 27.8 29.9 32.5 31.5 28.0 25.9 25.0 24.3 23.5 23.0 22.5 22.1 21.7 21.3 21.1 20.9 20.8 20.6 20.4 20.3 20.1 20.1 25.0 25.8 27.5 30.8 31.9 32.2 36.2 35.5 31.0 27.3 26.2 25.1 24.0 23.2 22.6 22.2 21.7 21.4 21.1 21.0 20.8 20.6 20.4 20.3 20.1 20.1 25.7 27.0 28.8 33.6 37.1 20.0 20.0 37.3 33.1 28.3 26.9 25.5 24.3 23.4 22.7 22.2 21.7 21.4 21.1 20.9 20.7 20.6 20.4 20.2 20.1 20.1 25.6 27.0 28.1 32.1 35.6 20.0 20.0 38.7 34.0 28.1 26.4 25.3 24.2 23.4 22.7 22.1 21.7 21.4 21.1 20.9 20.7 20.5 20.4 20.2 20.1 20.1 24.9 25.7 26.7 29.6 32.6 34.9 33.9 34.9 32.1 26.9 25.4 24.6 23.9 23.1 22.5 22.0 21.7 21.4 21.1 20.9 20.8 20.6 20.4 20.3 20.1 20.1 24.0 24.5 25.5 27.5 30.0 31.7 31.1 30.2 28.1 25.5 24.6 23.9 23.4 22.9 22.4 21.9 21.6 21.3 21.1 20.9 20.7 20.6 20.4 20.3 20.1 20.1 22.6 23.7 24.6 25.8 27.0 27.5 27.4 27.1 25.9 24.7 24.0 23.5 23.0 22.6 22.2 21.8 21.5 21.2 21.0 20.8 20.7 20.5 20.4 20.3 20.1 20.1 20.0 20.0 20.0 20.0 20.0 20.0 20.0 20.0 20.0 20.0 20.0 20.0 20.0 20.0 20.0 20.0 20.0 20.0 20.0 20.0 20.0 20.0 20.0 20.1 20.1 20.1 20.1 20.1 20.1 20.1 20.1 20.1 20.1 20.1 20.1 20.1 20.1 20.1 20.1 20.1 20.1 20.1 20.1 20.1 20.1 20.1 20.1 20.1 20.1 20.1 20.1 20.1 20.1 20.1 20.1 20.2 20.2 20.2 20.2 20.2 20.2 20.2 20.2 20.2 20.1 20.1 20.1 20.1 20.1 20.1 20.1 20.1 20.2 20.2 20.2 20.2 20.1 20.1 20.2 20.2 20.2 20.2 20.2 20.2 20.2 20.3 20.3 20.3 20.3 20.2 20.2 20.2 20.2 20.2 20.2 20.2 20.2 20.3 20.3 20.3 20.3 20.2 20.1 20.0 20.3 20.3 20.3 20.3 20.3 20.3 20.3 20.3 20.4 20.4 20.3 20.3 20.3 20.3 20.3 20.3 20.3 20.4 20.4 20.4 20.4 20.4 20.3 20.2 20.1 20.0 20.3 20.4 20.4 20.4 20.4 20.4 20.4 20.5 20.5 20.5 20.5 20.4 20.4 20.4 20.4 20.5 20.5 20.5 20.5 20.5 20.4 20.4 20.3 20.2 20.1 20.0 20.5 20.5 20.5 20.5 20.6 20.6 20.6 20.6 20.6 20.6 20.6 20.6 20.6 20.6 20.6 20.6 20.6 20.6 20.6 20.5 20.5 20.4 20.3 20.2 20.1 20.0 20.6 20.6 20.7 20.7 20.7 20.7 20.7 20.8 20.8 20.8 20.8 20.8 20.8 20.8 20.8 20.7 20.7 20.7 20.6 20.6 20.5 20.4 20.3 20.1 20.1 20.0 20.8 20.8 20.9 20.9 20.9 20.9 21.0 21.0 21.1 21.1 21.0 21.0 20.9 20.9 20.9 20.9 20.8 20.8 20.7 20.6 20.5 20.4 20.3 20.1 20.1 20.0 20.9 21.0 21.1 21.2 21.2 21.2 21.2 21.3 21.4 21.3 21.2 21.2 21.1 21.1 21.0 21.0 20.9 20.8 20.7 20.6 20.5 20.4 20.2 20.1 20.1 20.0 21.1 21.2 21.3 21.4 21.5 21.5 21.6 21.6 21.7 21.6 21.4 21.4 21.3 21.2 21.2 21.1 21.0 20.9 20.8 20.7 20.5 20.4 20.2 20.1 20.1 20.0 21.3 21.4 21.5 21.7 21.8 21.9 21.9 22.0 22.0 21.8 21.7 21.6 21.5 21.4 21.3 21.2 21.1 21.0 20.8 20.7 20.5 20.4 20.2 20.2 20.1 20.0 21.5 21.6 21.8 22.0 22.2 22.3 22.4 22.4 22.3 22.1 21.9 21.8 21.7 21.6 21.4 21.3 21.2 21.1 20.9 20.7 20.5 20.4 20.2 20.2 20.1 20.0 21.7 21.9 22.1 22.3 22.6 22.8 22.9 22.9 22.7 22.5 22.2 22.1 21.9 21.8 21.6 21.5 21.3 21.1 20.9 20.7 20.5 20.4 20.3 20.2 20.1 20.0 21.9 22.2 22.4 22.7 23.0 23.2 23.5 23.5 23.2 22.9 22.6 22.4 22.2 22.0 21.8 21.6 21.4 21.1 20.9 20.7 20.5 20.4 20.3 20.2 20.1 20.0 22.2 22.5 22.8 23.2 23.6 24.0 24.3 24.1 23.7 23.3 23.0 22.7 22.4 22.2 21.9 21.7 21.4 21.2 20.9 20.7 20.5 20.4 20.3 20.2 20.1 20.0 22.6 22.9 23.3 23.8 24.3 25.0 25.2 24.9 24.4 23.9 23.4 23.1 22.7 22.4 22.1 21.8 21.5 21.2 20.9 20.7 20.5 20.4 20.3 20.2 20.1 20.0 22.9 23.3 23.8 24.5 25.1 26.0 26.6 26.2 25.3 24.5 23.9 23.5 23.0 22.6 22.2 21.9 21.5 21.2 20.9 20.7 20.6 20.5 20.3 20.2 20.1 20.1 23.4 23.9 24.8 25.7 26.3 27.7 29.6 28.8 26.3 25.2 24.5 23.9 23.3 22.8 22.4 22.0 21.6 21.3 21.0 20.8 20.7 20.5 20.4 20.2 20.1 20.1 24.1 24.7 26.2 28.8 31.6 33.9 36.6 35.0 29.2 26.3 25.3 24.5 23.7 23.1 22.6 22.2 21.7 21.4 21.1 20.9 20.7 20.6 20.4 20.3 20.1 20.1 25.2 26.2 28.2 34.8 63.9 104.0 100.0 60.5 34.8 28.4 26.6 25.4 24.3 23.4 22.8 22.3 21.8 21.4 21.2 20.9 20.7 20.6 20.4 20.3 20.1 20.1 26.2 27.7 29.7 40.6 123.7 332.7 283.4 87.3 38.3 30.1 27.5 26.0 24.6 23.7 22.9 22.3 21.8 21.4 21.1 20.9 20.7 20.5 20.4 20.2 20.1 20.1 26.1 27.5 29.4 42.2 139.0 421.7 348.7 83.5 37.4 29.7 27.0 25.6 24.5 23.6 22.9 22.3 21.8 21.4 21.1 20.9 20.7 20.5 20.4 20.2 20.1 20.1 25.1 26.0 28.1 37.0 78.9 171.2 147.5 55.1 33.6 27.8 25.8 24.8 24.1 23.3 22.7 22.1 21.7 21.4 21.1 20.9 20.7 20.6 20.4 20.3 20.1 20.1 24.1 24.8 26.3 29.7 34.3 40.6 38.7 32.1 28.9 26.0 25.0 24.1 23.5 23.0 22.5 22.0 21.6 21.3 21.1 20.9 20.7 20.6 20.4 20.3 20.1 20.1 22.7 24.0 24.8 26.3 27.8 28.8 28.7 27.6 26.3 25.0 24.3 23.7 23.1 22.7 22.2 21.8 21.5 21.2 21.0 20.8 20.6 20.5 20.4 20.2 20.1 20.1 20.0 20.0 20.0 20.0 20.0 20.0 20.0 20.0 20.0 20.0 20.0 20.0 20.0 20.0 20.0 20.0 20.0 20.0 20.0 20.0 20.0 20.0 20.0 20.1 20.1 20.1 20.1 20.1 20.1 20.1 20.1 20.1 20.1 20.1 20.1 20.1 20.1 20.1 20.1 20.1 20.1 20.1 20.0 20.0 20.1 20.1 20.1 20.1 20.1 20.1 20.1 20.1 20.1 20.1 20.1 20.1 20.1 20.1 20.1 20.1 20.2 20.2 20.1 20.1 20.1 20.1 20.1 20.1 20.1 20.1 20.1 20.1 20.1 20.2 20.2 20.2 20.1 20.1 20.2 20.2 20.2 20.2 20.2 20.2 20.2 20.2 20.2 20.2 20.2 20.2 20.2 20.2 20.2 20.2 20.2 20.2 20.2 20.2 20.2 20.2 20.2 20.2 20.1 20.0 20.2 20.2 20.3 20.3 20.3 20.3 20.3 20.3 20.3 20.3 20.3 20.3 20.3 20.3 20.3 20.3 20.3 20.3 20.3 20.3 20.3 20.3 20.2 20.2 20.1 20.0 20.3 20.3 20.4 20.4 20.4 20.4 20.4 20.4 20.5 20.5 20.4 20.4 20.4 20.4 20.4 20.4 20.4 20.4 20.4 20.4 20.4 20.3 20.2 20.1 20.1 20.0 20.4 20.5 20.5 20.5 20.6 20.6 20.6 20.6 20.6 20.6 20.6 20.6 20.6 20.6 20.6 20.6 20.5 20.5 20.5 20.4 20.4 20.3 20.2 20.1 20.1 20.0 20.6 20.6 20.7 20.7 20.7 20.8 20.8 20.8 20.8 20.8 20.8 20.7 20.7 20.7 20.7 20.7 20.6 20.6 20.5 20.5 20.4 20.3 20.2 20.1 20.1 20.0 20.7 20.8 20.8 20.9 21.0 21.0 21.0 21.1 21.1 21.1 21.0 20.9 20.9 20.9 20.8 20.8 20.7 20.7 20.6 20.5 20.4 20.3 20.2 20.1 20.1 20.0 20.9 21.0 21.1 21.2 21.2 21.3 21.3 21.4 21.4 21.3 21.2 21.1 21.1 21.0 20.9 20.9 20.8 20.7 20.7 20.6 20.5 20.3 20.2 20.1 20.1 20.0 21.1 21.2 21.3 21.4 21.6 21.6 21.7 21.7 21.7 21.6 21.4 21.3 21.2 21.2 21.1 21.0 20.9 20.8 20.7 20.6 20.5 20.3 20.2 20.1 20.1 20.0 21.3 21.4 21.5 21.7 21.9 22.0 22.1 22.1 22.0 21.8 21.7 21.5 21.4 21.3 21.2 21.1 21.0 20.9 20.8 20.6 20.5 20.3 20.2 20.1 20.1 20.0 21.5 21.6 21.8 22.1 22.3 22.4 22.6 22.5 22.4 22.2 21.9 21.8 21.7 21.5 21.4 21.3 21.1 21.0 20.8 20.7 20.5 20.3 20.2 20.1 20.1 20.0 21.7 21.9 22.2 22.5 22.7 23.0 23.1 23.1 22.8 22.5 22.3 22.1 21.9 21.7 21.6 21.4 21.2 21.1 20.9 20.7 20.5 20.3 20.2 20.1 20.1 20.0 22.0 22.2 22.5 22.9 23.3 23.6 23.8 23.8 23.4 23.0 22.7 22.5 22.2 22.0 21.8 21.6 21.3 21.1 20.9 20.7 20.5 20.3 20.2 20.2 20.1 20.0 22.3 22.6 23.0 23.5 24.0 24.5 24.7 24.5 24.0 23.6 23.2 22.9 22.5 22.2 22.0 21.7 21.4 21.2 20.9 20.7 20.5 20.4 20.3 20.2 20.1 20.0 22.7 23.1 23.6 24.2 24.9 25.6 26.1 25.6 24.8 24.2 23.7 23.3 22.9 22.5 22.1 21.8 21.5 21.2 20.9 20.7 20.5 20.4 20.3 20.2 20.1 20.0 23.2 23.7 24.3 25.3 26.4 27.7 29.9 28.8 26.0 25.0 24.3 23.8 23.2 22.8 22.3 21.9 21.6 21.3 21.0 20.7 20.6 20.4 20.3 20.2 20.1 20.0 23.7 24.4 26.2 28.7 29.6 32.2 45.7 45.2 30.4 26.0 25.1 24.3 23.6 23.0 22.5 22.1 21.7 21.4 21.1 20.8 20.6 20.5 20.4 20.2 20.1 20.1 24.6 26.0 29.7 35.4 39.9 45.3 71.0 82.7 50.7 27.8 26.0 25.0 24.2 23.4 22.8 22.3 21.9 21.5 21.1 20.9 20.7 20.5 20.4 20.2 20.1 20.1 25.9 28.4 32.5 44.5 92.0 142.2 165.7 156.8 98.5 44.7 27.8 26.0 24.8 23.8 23.1 22.5 22.0 21.5 21.2 20.9 20.7 20.5 20.4 20.2 20.1 20.1 27.1 30.5 34.8 59.1 183.3 333.3 321.8 204.5 108.5 50.9 29.8 26.8 25.3 24.2 23.3 22.6 22.0 21.5 21.2 20.9 20.7 20.5 20.4 20.2 20.1 20.1 27.1 29.7 35.6 71.1 217.9 423.1 386.7 183.4 74.8 37.6 29.5 26.6 25.2 24.2 23.4 22.6 22.0 21.5 21.2 20.9 20.7 20.5 20.4 20.2 20.1 20.1 25.7 27.0 33.1 62.3 134.5 245.0 237.4 124.5 57.8 31.3 27.4 25.6 24.6 23.7 23.0 22.4 21.9 21.5 21.2 20.9 20.7 20.5 20.4 20.2 20.1 20.1 24.5 25.4 28.6 41.6 49.8 59.0 68.3 59.7 41.1 27.7 25.8 24.7 23.9 23.2 22.6 22.1 21.7 21.4 21.1 20.9 20.7 20.5 20.4 20.2 20.1 20.1 23.0 24.5 25.5 29.1 31.6 32.5 34.0 31.4 27.4 25.8 24.9 24.1 23.4 22.9 22.4 22.0 21.6 21.3 21.0 20.8 20.6 20.5 20.3 20.2 20.1 20.1 20.0 20.0 20.0 20.0 20.0 20.0 20.0 20.0 20.0 20.0 20.0 20.0 20.0 20.0 20.0 20.0 20.0 20.0 20.0 20.0 20.0 20.0 20.0 20.1 20.1 20.1 20.1 20.1 20.1 20.1 20.1 20.1 20.1 20.1 20.1 20.1 20.1 20.1 20.1 20.1 20.0 20.0 20.0 20.0 20.0 20.1 20.1 20.1 20.1 20.1 20.1 20.1 20.1 20.1 20.1 20.1 20.1 20.1 20.1 20.1 20.2 20.2 20.1 20.1 20.1 20.1 20.1 20.1 20.1 20.1 20.1 20.1 20.1 20.1 20.2 20.1 20.1 20.1 20.2 20.2 20.2 20.2 20.2 20.2 20.2 20.2 20.2 20.2 20.2 20.2 20.2 20.2 20.2 20.2 20.2 20.2 20.2 20.2 20.2 20.2 20.2 20.2 20.1 20.0 20.2 20.3 20.3 20.3 20.3 20.3 20.3 20.3 20.3 20.3 20.3 20.3 20.3 20.3 20.3 20.3 20.3 20.3 20.3 20.3 20.3 20.3 20.2 20.1 20.1 20.0 20.3 20.3 20.4 20.4 20.4 20.4 20.4 20.5 20.5 20.5 20.5 20.4 20.4 20.4 20.4 20.4 20.4 20.4 20.4 20.3 20.3 20.3 20.2 20.1 20.1 20.0 20.4 20.5 20.5 20.6 20.6 20.6 20.6 20.6 20.7 20.7 20.6 20.6 20.6 20.6 20.5 20.5 20.5 20.5 20.4 20.4 20.4 20.3 20.2 20.1 20.1 20.0 20.6 20.6 20.7 20.8 20.8 20.8 20.8 20.9 20.9 20.9 20.8 20.7 20.7 20.7 20.7 20.6 20.6 20.5 20.5 20.4 20.4 20.3 20.2 20.1 20.1 20.0 20.7 20.8 20.9 21.0 21.0 21.1 21.1 21.2 21.2 21.1 21.0 20.9 20.9 20.8 20.8 20.7 20.7 20.6 20.6 20.5 20.4 20.3 20.2 20.1 20.1 20.0 20.9 21.0 21.1 21.2 21.3 21.3 21.4 21.5 21.4 21.3 21.2 21.1 21.0 21.0 20.9 20.8 20.8 20.7 20.6 20.5 20.4 20.3 20.2 20.1 20.1 20.0 21.1 21.2 21.3 21.5 21.6 21.7 21.8 21.8 21.8 21.6 21.4 21.3 21.2 21.1 21.1 21.0 20.9 20.8 20.7 20.6 20.5 20.3 20.2 20.1 20.1 20.0 21.3 21.4 21.6 21.8 22.0 22.1 22.2 22.2 22.1 21.9 21.7 21.6 21.5 21.3 21.2 21.1 21.0 20.9 20.8 20.6 20.5 20.3 20.2 20.1 20.1 20.0 21.5 21.7 21.9 22.2 22.4 22.5 22.7 22.7 22.5 22.2 22.0 21.9 21.7 21.5 21.4 21.2 21.1 21.0 20.8 20.7 20.5 20.4 20.2 20.1 20.1 20.0 21.8 22.0 22.2 22.6 22.9 23.1 23.3 23.3 23.0 22.6 22.4 22.2 22.0 21.8 21.6 21.4 21.2 21.1 20.9 20.7 20.5 20.4 20.2 20.1 20.1 20.0 22.0 22.3 22.6 23.1 23.5 23.8 24.0 23.9 23.5 23.1 22.8 22.6 22.3 22.0 21.8 21.6 21.3 21.1 20.9 20.7 20.5 20.4 20.2 20.2 20.1 20.0 22.4 22.8 23.2 23.8 24.3 24.7 25.0 24.9 24.4 23.8 23.4 23.0 22.6 22.3 22.0 21.7 21.5 21.2 21.0 20.7 20.5 20.4 20.3 20.2 20.1 20.0 22.8 23.3 24.0 24.8 25.6 26.6 27.0 26.4 25.3 24.6 24.0 23.5 23.0 22.6 22.2 21.9 21.6 21.3 21.0 20.7 20.5 20.4 20.3 20.2 20.1 20.0 23.3 24.0 25.3 26.6 27.5 30.0 32.8 30.7 26.9 25.5 24.7 24.0 23.4 22.9 22.4 22.0 21.7 21.3 21.1 20.8 20.6 20.4 20.3 20.2 20.1 20.0 24.0 25.1 28.1 31.2 31.4 39.9 58.5 55.1 34.9 26.9 25.6 24.7 23.9 23.3 22.7 22.3 21.8 21.5 21.1 20.9 20.7 20.5 20.4 20.2 20.1 20.1 25.3 27.5 34.0 40.4 43.5 74.9 125.1 137.9 82.5 31.3 26.8 25.5 24.6 23.7 23.0 22.5 22.0 21.6 21.2 21.0 20.7 20.5 20.4 20.2 20.1 20.1 28.0 32.4 40.3 58.0 100.5 182.7 255.4 270.3 174.6 58.4 29.7 26.6 25.3 24.2 23.4 22.8 22.2 21.7 21.3 21.0 20.7 20.6 20.4 20.2 20.1 20.1 31.7 38.3 52.1 101.8 220.2 350.2 396.9 349.2 206.9 75.2 36.3 28.4 26.0 24.7 23.7 22.9 22.3 21.7 21.3 21.0 20.7 20.5 20.4 20.2 20.1 20.1 31.7 37.7 61.0 135.2 273.2 416.5 442.5 326.4 157.9 58.7 37.9 28.6 25.9 24.6 23.8 22.9 22.2 21.7 21.3 21.0 20.7 20.5 20.4 20.2 20.1 20.0 27.7 31.4 52.0 111.9 176.1 248.0 293.8 229.0 107.8 41.8 31.5 26.6 25.2 24.1 23.3 22.6 22.1 21.6 21.3 21.0 20.7 20.5 20.4 20.2 20.1 20.1 25.0 26.8 35.4 63.1 71.0 70.8 102.0 102.9 59.6 31.0 26.8 25.3 24.3 23.5 22.9 22.3 21.9 21.5 21.2 20.9 20.7 20.5 20.4 20.2 20.1 20.1 23.2 24.9 26.4 33.0 36.2 35.6 39.1 35.9 29.1 26.6 25.4 24.5 23.8 23.1 22.6 22.1 21.7 21.4 21.1 20.8 20.6 20.5 20.3 20.2 20.1 20.0 20.0 20.0 20.0 20.0 20.0 20.0 20.0 20.0 20.0 20.0 20.0 20.0 20.0 20.0 20.0 20.0 20.0 20.0 20.0 20.0 20.0 20.0 20.0 20.1 20.1 20.1 20.1 20.1 20.1 20.1 20.1 20.1 20.1 20.1 20.1 20.1 20.1 20.1 20.1 20.1 20.1 20.1 20.1 20.1 20.1 20.1 20.1 20.1 20.1 20.1 20.1 20.1 20.1 20.1 20.1 20.2 20.2 20.1 20.1 20.2 20.2 20.2 20.2 20.1 20.1 20.1 20.1 20.1 20.1 20.1 20.1 20.1 20.1 20.2 20.2 20.2 20.1 20.1 20.2 20.2 20.2 20.2 20.2 20.2 20.2 20.3 20.3 20.3 20.2 20.2 20.2 20.2 20.2 20.2 20.2 20.2 20.2 20.2 20.2 20.2 20.2 20.2 20.1 20.0 20.3 20.3 20.3 20.3 20.3 20.3 20.3 20.4 20.4 20.4 20.4 20.3 20.3 20.3 20.3 20.3 20.3 20.3 20.3 20.3 20.3 20.3 20.2 20.2 20.1 20.0 20.4 20.4 20.5 20.5 20.5 20.5 20.5 20.5 20.6 20.6 20.5 20.5 20.5 20.5 20.5 20.5 20.5 20.4 20.4 20.4 20.3 20.3 20.2 20.2 20.1 20.0 20.5 20.6 20.6 20.7 20.7 20.7 20.7 20.7 20.8 20.8 20.7 20.7 20.6 20.6 20.6 20.6 20.6 20.5 20.5 20.4 20.4 20.3 20.2 20.1 20.1 20.0 20.7 20.7 20.8 20.9 20.9 20.9 20.9 21.0 21.0 21.0 20.9 20.8 20.8 20.8 20.7 20.7 20.6 20.6 20.5 20.5 20.4 20.3 20.2 20.1 20.1 20.0 20.8 20.9 21.0 21.1 21.1 21.2 21.2 21.3 21.3 21.2 21.1 21.0 21.0 20.9 20.9 20.8 20.7 20.7 20.6 20.5 20.5 20.4 20.3 20.1 20.1 20.0 21.0 21.1 21.2 21.3 21.4 21.4 21.5 21.6 21.6 21.4 21.3 21.2 21.1 21.1 21.0 20.9 20.8 20.8 20.7 20.6 20.5 20.4 20.3 20.1 20.1 20.0 21.2 21.3 21.4 21.6 21.7 21.8 21.9 21.9 21.9 21.7 21.6 21.4 21.3 21.2 21.1 21.0 20.9 20.8 20.7 20.6 20.5 20.4 20.3 20.1 20.1 20.0 21.4 21.5 21.7 21.9 22.0 22.1 22.3 22.3 22.2 22.0 21.8 21.7 21.6 21.4 21.3 21.2 21.1 20.9 20.8 20.7 20.5 20.4 20.3 20.2 20.1 20.0 21.6 21.8 22.0 22.2 22.4 22.5 22.8 22.8 22.6 22.4 22.2 22.0 21.8 21.7 21.5 21.3 21.2 21.1 20.9 20.7 20.6 20.4 20.3 20.2 20.1 20.0 21.8 22.1 22.3 22.6 22.8 23.0 23.3 23.4 23.1 22.8 22.5 22.3 22.1 21.9 21.7 21.5 21.3 21.1 21.0 20.8 20.6 20.4 20.3 20.2 20.1 20.0 22.1 22.4 22.7 23.1 23.4 23.7 24.0 24.0 23.7 23.3 23.0 22.7 22.4 22.2 21.9 21.7 21.5 21.2 21.0 20.8 20.6 20.4 20.3 20.2 20.1 20.0 22.5 23.0 23.4 23.8 24.1 24.6 25.0 25.1 24.6 24.0 23.5 23.1 22.8 22.5 22.1 21.9 21.6 21.3 21.1 20.8 20.6 20.4 20.3 20.2 20.1 20.0 23.1 23.7 24.6 25.1 25.9 27.0 27.3 26.6 25.5 24.7 24.2 23.7 23.2 22.8 22.4 22.0 21.7 21.4 21.1 20.9 20.6 20.5 20.3 20.2 20.1 20.0 23.7 24.6 26.3 27.2 26.7 29.5 32.3 30.2 27.4 25.8 24.9 24.3 23.6 23.1 22.6 22.2 21.8 21.5 21.2 20.9 20.7 20.5 20.4 20.2 20.1 20.1 24.7 26.3 29.3 30.8 27.9 38.3 51.1 48.2 36.9 27.5 26.0 25.0 24.2 23.5 22.9 22.4 22.0 21.6 21.3 21.0 20.8 20.6 20.4 20.3 20.1 20.1 26.8 30.3 37.0 40.6 36.3 79.9 127.2 138.3 93.7 33.3 27.4 25.8 24.8 24.0 23.3 22.7 22.2 21.8 21.4 21.1 20.8 20.6 20.4 20.3 20.1 20.1 31.8 43.3 59.3 73.4 77.3 180.4 285.5 284.3 175.9 53.1 32.7 27.0 25.7 24.6 23.7 23.0 22.4 21.9 21.5 21.1 20.8 20.6 20.4 20.3 20.1 20.1 39.9 65.6 103.6 153.6 171.0 289.8 420.0 384.9 228.9 86.4 48.8 30.1 26.5 25.1 24.0 23.3 22.5 22.0 21.5 21.1 20.8 20.6 20.4 20.2 20.1 20.1 39.6 64.0 118.2 201.2 217.1 311.8 435.1 375.6 213.5 93.9 55.3 30.6 26.5 25.0 24.0 23.2 22.5 22.0 21.5 21.1 20.8 20.6 20.4 20.2 20.1 20.1 30.9 43.0 82.5 152.4 162.0 196.4 279.9 245.6 133.5 64.5 40.9 27.5 25.5 24.4 23.6 22.9 22.3 21.8 21.5 21.1 20.8 20.6 20.4 20.3 20.1 20.1 26.0 31.8 46.6 79.7 87.4 73.8 96.5 98.4 60.5 37.0 29.1 25.6 24.6 23.8 23.1 22.6 22.1 21.7 21.4 21.0 20.8 20.6 20.4 20.3 20.1 20.1 23.5 26.4 29.7 38.4 42.3 38.2 38.7 36.1 29.9 27.3 25.8 24.8 24.0 23.4 22.8 22.3 21.9 21.6 21.2 21.0 20.7 20.5 20.4 20.2 20.1 20.1 20.0 20.0 20.0 20.0 20.0 20.0 20.0 20.0 20.0 20.0 20.0 20.0 20.0 20.0 20.0 20.0 20.0 20.0 20.0 20.0 20.0 20.0 20.1 20.1 20.1 20.1 20.1 20.1 20.1 20.1 20.1 20.1 20.1 20.1 20.1 20.1 20.1 20.1 20.1 20.1 20.1 20.1 20.1 20.1 20.1 20.1 20.1 20.1 20.1 20.1 20.1 20.1 20.1 20.1 20.2 20.2 20.2 20.2 20.2 20.2 20.2 20.2 20.2 20.2 20.1 20.1 20.1 20.2 20.2 20.2 20.2 20.2 20.2 20.2 20.2 20.2 20.1 20.1 20.2 20.2 20.3 20.3 20.3 20.2 20.2 20.3 20.3 20.3 20.3 20.3 20.3 20.3 20.3 20.3 20.3 20.3 20.3 20.3 20.3 20.3 20.3 20.2 20.1 20.1 20.3 20.3 20.4 20.4 20.4 20.4 20.4 20.4 20.4 20.5 20.4 20.4 20.4 20.4 20.4 20.4 20.4 20.4 20.4 20.4 20.4 20.3 20.3 20.2 20.1 20.0 20.4 20.5 20.5 20.5 20.5 20.5 20.5 20.6 20.6 20.6 20.6 20.6 20.6 20.6 20.6 20.6 20.5 20.5 20.5 20.5 20.4 20.4 20.3 20.2 20.1 20.0 20.6 20.6 20.7 20.7 20.7 20.7 20.8 20.8 20.9 20.9 20.8 20.8 20.7 20.7 20.7 20.7 20.7 20.6 20.6 20.5 20.5 20.4 20.3 20.2 20.1 20.0 20.7 20.8 20.9 21.0 21.0 21.0 21.0 21.1 21.1 21.1 21.0 21.0 20.9 20.9 20.9 20.8 20.7 20.7 20.6 20.6 20.5 20.4 20.3 20.2 20.1 20.0 20.9 21.0 21.1 21.2 21.2 21.3 21.3 21.4 21.4 21.3 21.2 21.1 21.1 21.1 21.0 20.9 20.8 20.8 20.7 20.6 20.5 20.4 20.3 20.2 20.1 20.0 21.1 21.2 21.3 21.4 21.5 21.5 21.6 21.7 21.7 21.6 21.4 21.3 21.3 21.2 21.1 21.0 21.0 20.9 20.8 20.7 20.6 20.5 20.3 20.2 20.1 20.0 21.2 21.4 21.5 21.7 21.8 21.9 22.0 22.1 22.0 21.8 21.7 21.6 21.5 21.4 21.3 21.2 21.1 21.0 20.9 20.8 20.6 20.5 20.3 20.2 20.1 20.0 21.4 21.6 21.8 21.9 22.1 22.2 22.4 22.4 22.3 22.1 22.0 21.8 21.7 21.6 21.5 21.3 21.2 21.1 21.0 20.8 20.7 20.5 20.3 20.2 20.1 20.0 21.6 21.8 22.1 22.2 22.4 22.5 22.8 22.9 22.7 22.5 22.3 22.1 22.0 21.8 21.7 21.5 21.3 21.2 21.0 20.9 20.7 20.5 20.3 20.2 20.1 20.0 21.9 22.1 22.4 22.6 22.8 23.0 23.3 23.4 23.2 22.9 22.7 22.4 22.3 22.1 21.9 21.7 21.5 21.3 21.1 20.9 20.7 20.5 20.3 20.2 20.1 20.0 22.1 22.4 22.7 23.0 23.3 23.7 24.1 24.1 23.8 23.4 23.1 22.8 22.6 22.3 22.1 21.8 21.6 21.4 21.2 21.0 20.7 20.5 20.3 20.2 20.1 20.0 22.9 23.4 23.7 23.7 23.8 24.4 25.0 25.1 24.6 24.0 23.6 23.3 22.9 22.6 22.3 22.0 21.8 21.5 21.2 21.0 20.7 20.5 20.3 20.2 20.1 20.1 24.6 24.8 25.1 25.2 25.5 26.2 26.6 26.3 25.5 24.8 24.2 23.8 23.3 22.9 22.5 22.2 21.9 21.6 21.3 21.0 20.8 20.5 20.4 20.2 20.1 20.1 25.7 26.2 27.0 26.1 25.7 28.2 29.8 28.9 27.3 25.8 25.0 24.3 23.8 23.3 22.8 22.4 22.0 21.7 21.4 21.1 20.8 20.6 20.4 20.3 20.1 20.1 29.7 30.4 30.3 27.7 26.2 33.5 39.6 41.9 36.2 27.4 26.0 25.0 24.3 23.7 23.1 22.6 22.2 21.8 21.5 21.2 20.9 20.7 20.5 20.3 20.1 20.1 40.7 39.7 39.8 35.3 37.4 66.4 86.0 109.5 84.9 32.0 27.7 25.9 24.9 24.1 23.5 22.9 22.4 22.0 21.6 21.3 21.0 20.7 20.5 20.3 20.2 20.1 52.7 66.8 78.4 66.0 81.9 174.1 224.5 222.1 142.0 50.2 37.1 27.3 25.8 24.8 23.9 23.3 22.7 22.1 21.7 21.3 20.9 20.7 20.5 20.3 20.1 20.1 60.6 107.3 149.7 133.7 143.8 283.0 371.8 330.5 205.9 103.8 63.1 30.4 26.7 25.3 24.2 23.5 22.8 22.2 21.7 21.3 20.9 20.6 20.5 20.3 20.1 20.1 50.6 93.4 158.0 165.5 151.1 266.9 357.6 320.7 224.8 136.2 73.9 30.9 26.7 25.2 24.2 23.4 22.7 22.2 21.7 21.3 20.9 20.7 20.4 20.3 20.1 20.1 33.0 49.0 93.6 129.4 124.9 159.5 195.3 172.8 136.0 95.9 52.0 27.7 25.6 24.6 23.7 23.1 22.5 22.1 21.7 21.3 21.0 20.7 20.5 20.3 20.1 20.1 26.7 33.6 48.0 78.9 90.5 73.2 68.2 62.3 54.1 45.5 31.8 25.8 24.7 24.0 23.3 22.8 22.3 21.9 21.6 21.2 20.9 20.7 20.5 20.3 20.1 20.1 23.7 27.2 31.1 41.8 47.1 39.7 35.9 33.4 29.6 27.5 26.0 25.0 24.2 23.6 23.0 22.6 22.2 21.8 21.4 21.1 20.9 20.6 20.4 20.3 20.1 20.1 20.0 20.0 20.0 20.0 20.0 20.0 20.0 20.0 20.0 20.1 20.1 20.0 20.0 20.0 20.0 20.0 20.0 20.0 20.0 20.0 20.0 20.1 20.1 20.1 20.1 20.1 20.1 20.1 20.1 20.1 20.1 20.1 20.1 20.1 20.1 20.1 20.1 20.1 20.1 20.1 20.1 20.1 20.1 20.1 20.1 20.1 20.1 20.1 20.1 20.2 20.1 20.1 20.1 20.2 20.2 20.2 20.2 20.2 20.2 20.2 20.2 20.2 20.2 20.2 20.2 20.2 20.2 20.2 20.2 20.2 20.2 20.2 20.2 20.2 20.3 20.2 20.2 20.1 20.2 20.2 20.3 20.3 20.3 20.3 20.3 20.3 20.3 20.3 20.3 20.3 20.3 20.3 20.3 20.3 20.3 20.4 20.4 20.4 20.4 20.3 20.3 20.3 20.1 20.1 20.3 20.3 20.4 20.4 20.4 20.4 20.4 20.4 20.5 20.5 20.5 20.5 20.5 20.5 20.5 20.5 20.5 20.5 20.5 20.5 20.4 20.4 20.4 20.3 20.1 20.1 20.5 20.5 20.5 20.6 20.6 20.6 20.6 20.6 20.7 20.7 20.7 20.7 20.6 20.6 20.6 20.6 20.6 20.6 20.6 20.5 20.5 20.5 20.4 20.2 20.1 20.1 20.6 20.7 20.7 20.8 20.8 20.8 20.8 20.9 21.0 21.0 20.9 20.9 20.8 20.8 20.8 20.8 20.8 20.7 20.7 20.6 20.6 20.5 20.4 20.2 20.1 20.0 20.8 20.9 20.9 21.0 21.0 21.0 21.1 21.2 21.2 21.2 21.1 21.0 21.0 21.0 20.9 20.9 20.8 20.8 20.7 20.7 20.6 20.5 20.4 20.2 20.1 20.0 20.9 21.1 21.2 21.2 21.3 21.3 21.4 21.5 21.5 21.4 21.3 21.2 21.2 21.1 21.1 21.0 20.9 20.9 20.8 20.7 20.7 20.5 20.4 20.2 20.1 20.0 21.1 21.2 21.4 21.5 21.5 21.6 21.7 21.8 21.8 21.7 21.5 21.4 21.3 21.3 21.2 21.1 21.0 21.0 20.9 20.8 20.7 20.6 20.4 20.2 20.1 20.0 21.3 21.4 21.6 21.7 21.8 21.9 22.0 22.1 22.1 21.9 21.7 21.6 21.5 21.5 21.4 21.3 21.2 21.1 21.0 20.9 20.7 20.6 20.4 20.2 20.1 20.1 21.4 21.6 21.8 21.9 22.0 22.2 22.4 22.5 22.4 22.2 22.0 21.9 21.8 21.7 21.5 21.4 21.3 21.2 21.1 20.9 20.8 20.6 20.4 20.2 20.1 20.1 21.6 21.8 22.1 22.2 22.3 22.5 22.8 22.9 22.7 22.5 22.3 22.2 22.0 21.9 21.7 21.6 21.4 21.3 21.2 21.0 20.8 20.6 20.4 20.2 20.1 20.1 21.8 22.1 22.4 22.5 22.8 23.0 23.3 23.4 23.2 22.9 22.7 22.5 22.3 22.1 21.9 21.8 21.6 21.4 21.2 21.0 20.8 20.6 20.4 20.2 20.1 20.1 22.2 22.5 22.8 22.9 23.2 23.6 24.0 24.1 23.7 23.4 23.1 22.9 22.6 22.4 22.2 21.9 21.7 21.5 21.3 21.1 20.8 20.6 20.4 20.2 20.1 20.1 23.8 24.0 24.3 23.9 23.6 24.1 24.8 24.9 24.4 24.0 23.6 23.3 23.0 22.7 22.4 22.1 21.9 21.6 21.4 21.1 20.9 20.6 20.4 20.2 20.1 20.1 28.2 26.7 26.1 25.5 24.9 25.2 25.6 25.8 25.3 24.7 24.2 23.8 23.4 23.0 22.6 22.3 22.0 21.7 21.4 21.2 20.9 20.6 20.4 20.3 20.1 20.1 30.4 29.2 26.6 25.3 26.6 27.6 27.2 27.3 26.7 25.6 24.9 24.3 23.8 23.3 22.9 22.5 22.2 21.9 21.5 21.2 20.9 20.7 20.5 20.3 20.1 20.1 35.3 34.5 28.4 27.0 32.6 34.0 31.6 33.5 31.5 26.9 25.9 25.0 24.3 23.7 23.2 22.8 22.4 22.0 21.7 21.3 21.0 20.7 20.5 20.3 20.2 20.1 60.0 51.5 36.1 41.6 65.2 67.4 53.9 71.1 61.5 29.9 27.4 25.9 24.9 24.2 23.6 23.1 22.6 22.2 21.8 21.4 21.1 20.8 20.5 20.3 20.2 20.1 88.4 89.8 67.4 76.7 149.4 179.2 142.6 138.1 103.8 50.8 37.8 27.4 25.8 24.9 24.0 23.4 22.9 22.3 21.9 21.4 21.1 20.7 20.5 20.3 20.2 20.1 88.4 130.0 120.9 125.0 240.1 311.7 280.7 249.9 190.0 123.2 69.2 30.3 26.6 25.4 24.4 23.6 23.0 22.4 21.9 21.4 21.0 20.7 20.5 20.3 20.1 20.1 58.3 100.6 116.7 132.2 230.0 299.9 272.3 256.6 231.3 164.6 82.1 30.5 26.5 25.3 24.4 23.5 22.9 22.4 21.9 21.4 21.0 20.7 20.5 20.3 20.1 20.1 32.9 45.4 67.2 98.5 145.0 167.5 133.5 121.4 136.0 108.7 56.0 27.6 25.6 24.7 24.0 23.2 22.7 22.3 21.8 21.4 21.1 20.7 20.5 20.3 20.2 20.1 26.8 31.0 41.0 65.4 80.7 71.2 54.0 44.5 49.8 46.6 32.6 25.8 24.8 24.1 23.5 22.9 22.5 22.1 21.7 21.4 21.0 20.7 20.5 20.3 20.2 20.1 23.8 26.6 29.8 39.5 44.4 37.8 32.8 30.5 28.5 27.0 25.8 24.9 24.2 23.6 23.1 22.7 22.3 21.9 21.6 21.3 21.0 20.7 20.5 20.3 20.2 20.1 20.0 20.0 20.0 20.0 20.0 20.0 20.0 20.0 20.1 20.1 20.1 20.0 20.0 20.0 20.0 20.0 20.0 20.1 20.1 20.1 20.1 20.1 20.1 20.1 20.1 20.1 20.1 20.1 20.1 20.1 20.1 20.1 20.1 20.1 20.1 20.1 20.1 20.1 20.1 20.1 20.1 20.1 20.1 20.1 20.1 20.1 20.1 20.2 20.2 20.2 20.2 20.1 20.1 20.2 20.2 20.2 20.2 20.2 20.2 20.2 20.2 20.2 20.2 20.2 20.2 20.2 20.2 20.2 20.2 20.2 20.3 20.3 20.3 20.3 20.3 20.3 20.2 20.1 20.2 20.2 20.3 20.3 20.3 20.3 20.3 20.3 20.3 20.3 20.3 20.3 20.3 20.3 20.3 20.4 20.4 20.4 20.4 20.4 20.4 20.4 20.4 20.3 20.2 20.1 20.3 20.4 20.4 20.4 20.4 20.4 20.4 20.4 20.5 20.6 20.5 20.5 20.5 20.5 20.5 20.5 20.6 20.6 20.6 20.5 20.5 20.5 20.4 20.3 20.2 20.1 20.5 20.5 20.5 20.6 20.6 20.6 20.6 20.7 20.8 20.8 20.8 20.7 20.7 20.7 20.7 20.7 20.7 20.7 20.6 20.6 20.6 20.5 20.4 20.3 20.1 20.1 20.6 20.7 20.7 20.8 20.8 20.8 20.8 20.9 21.0 21.0 21.0 20.9 20.9 20.9 20.9 20.8 20.8 20.8 20.7 20.7 20.6 20.6 20.4 20.3 20.1 20.1 20.8 20.9 21.0 21.0 21.0 21.1 21.1 21.2 21.3 21.3 21.2 21.1 21.0 21.0 21.0 20.9 20.9 20.8 20.8 20.7 20.7 20.6 20.4 20.3 20.1 20.1 21.0 21.1 21.2 21.2 21.3 21.3 21.4 21.5 21.6 21.5 21.3 21.2 21.2 21.1 21.1 21.0 21.0 20.9 20.8 20.8 20.7 20.6 20.5 20.3 20.1 20.1 21.1 21.2 21.4 21.5 21.5 21.6 21.7 21.8 21.8 21.7 21.5 21.4 21.3 21.3 21.2 21.1 21.1 21.0 20.9 20.9 20.8 20.6 20.5 20.3 20.1 20.1 21.2 21.4 21.5 21.7 21.8 21.9 22.0 22.1 22.1 21.9 21.7 21.6 21.5 21.5 21.4 21.3 21.2 21.1 21.0 20.9 20.8 20.7 20.5 20.3 20.1 20.1 21.4 21.6 21.7 21.9 22.0 22.2 22.4 22.5 22.4 22.1 21.9 21.8 21.7 21.6 21.5 21.4 21.3 21.2 21.1 21.0 20.9 20.7 20.5 20.3 20.1 20.1 21.6 21.8 22.0 22.1 22.3 22.5 22.7 22.8 22.7 22.4 22.2 22.1 22.0 21.8 21.7 21.6 21.4 21.3 21.2 21.1 20.9 20.7 20.5 20.3 20.1 20.1 21.8 22.0 22.3 22.5 22.7 23.0 23.2 23.3 23.1 22.8 22.6 22.4 22.2 22.1 21.9 21.7 21.6 21.4 21.3 21.1 20.9 20.7 20.4 20.3 20.1 20.1 22.1 22.5 22.7 22.9 23.1 23.5 23.9 23.9 23.6 23.3 23.0 22.8 22.6 22.3 22.1 21.9 21.7 21.6 21.4 21.2 20.9 20.7 20.4 20.3 20.1 20.1 24.2 24.2 24.3 23.7 23.4 23.8 24.4 24.6 24.2 23.8 23.5 23.2 22.9 22.6 22.3 22.1 21.9 21.7 21.4 21.2 20.9 20.7 20.4 20.3 20.1 20.1 30.6 28.6 26.8 25.0 24.3 24.4 24.9 25.3 25.0 24.5 24.1 23.7 23.3 22.9 22.6 22.3 22.0 21.8 21.5 21.2 21.0 20.7 20.4 20.3 20.1 20.1 36.4 35.8 29.6 26.0 26.7 26.1 26.1 26.4 26.1 25.4 24.8 24.2 23.7 23.2 22.8 22.5 22.2 21.9 21.6 21.3 21.0 20.7 20.5 20.3 20.1 20.1 40.2 42.5 33.4 30.3 34.3 31.0 28.6 29.6 29.1 27.0 25.7 24.9 24.2 23.6 23.2 22.8 22.4 22.1 21.8 21.4 21.1 20.8 20.5 20.3 20.2 20.1 62.9 63.0 48.5 52.7 69.3 55.0 39.7 47.4 43.9 29.8 27.0 25.8 24.9 24.2 23.6 23.1 22.7 22.3 21.9 21.5 21.1 20.8 20.5 20.3 20.2 20.1 98.2 99.5 72.6 88.0 133.9 115.4 82.7 87.6 80.4 49.2 33.9 27.2 25.8 24.9 24.0 23.4 22.9 22.5 22.0 21.5 21.1 20.8 20.5 20.3 20.2 20.1 101.7 121.6 110.2 156.1 231.2 224.7 197.2 193.5 180.1 123.0 61.1 29.6 26.5 25.3 24.4 23.6 23.0 22.5 22.0 21.5 21.1 20.7 20.5 20.3 20.1 20.1 66.5 93.2 111.3 179.0 247.8 245.7 217.8 217.9 213.6 147.3 71.2 29.7 26.3 25.2 24.5 23.6 23.0 22.5 22.0 21.5 21.1 20.7 20.5 20.3 20.1 20.1 37.8 47.5 63.9 106.2 143.4 141.3 109.4 104.0 110.9 81.1 47.4 27.3 25.5 24.7 24.1 23.4 22.8 22.4 22.0 21.5 21.1 20.8 20.5 20.3 20.2 20.1 29.9 31.1 36.7 50.8 65.3 63.1 47.1 38.6 39.9 37.1 30.1 25.6 24.7 24.0 23.5 23.0 22.6 22.2 21.9 21.5 21.1 20.8 20.5 20.3 20.2 20.1 25.2 27.6 30.2 34.8 37.8 34.8 30.7 29.1 28.0 26.7 25.5 24.7 24.1 23.5 23.0 22.6 22.3 22.0 21.7 21.4 21.0 20.8 20.5 20.3 20.2 20.1 20.0 20.0 20.0 20.0 20.0 20.0 20.0 20.0 20.0 20.1 20.1 20.0 20.0 20.0 20.0 20.0 20.1 20.1 20.1 20.1 20.1 20.1 20.1 20.1 20.2 20.2 20.1 20.1 20.1 20.1 20.1 20.1 20.1 20.1 20.1 20.1 20.1 20.1 20.1 20.1 20.1 20.1 20.1 20.1 20.1 20.1 20.2 20.2 20.2 20.2 20.2 20.2 20.1 20.1 20.2 20.2 20.2 20.2 20.2 20.2 20.2 20.2 20.2 20.2 20.2 20.2 20.2 20.2 20.3 20.3 20.3 20.3 20.3 20.3 20.3 20.3 20.2 20.1 20.2 20.2 20.2 20.3 20.3 20.3 20.3 20.3 20.3 20.4 20.4 20.4 20.3 20.3 20.4 20.4 20.4 20.4 20.5 20.5 20.5 20.4 20.4 20.4 20.2 20.1 20.3 20.3 20.4 20.4 20.4 20.4 20.4 20.5 20.5 20.6 20.6 20.5 20.5 20.5 20.6 20.6 20.6 20.6 20.6 20.6 20.5 20.5 20.5 20.3 20.2 20.1 20.5 20.5 20.5 20.6 20.6 20.6 20.6 20.7 20.8 20.8 20.8 20.7 20.7 20.7 20.7 20.7 20.7 20.7 20.6 20.6 20.6 20.5 20.5 20.3 20.2 20.1 20.6 20.7 20.7 20.8 20.8 20.8 20.9 21.0 21.0 21.1 21.0 20.9 20.9 20.9 20.8 20.8 20.8 20.7 20.7 20.7 20.6 20.6 20.5 20.3 20.2 20.1 20.8 20.9 20.9 21.0 21.0 21.0 21.1 21.2 21.3 21.3 21.2 21.1 21.0 21.0 20.9 20.9 20.9 20.8 20.8 20.7 20.7 20.6 20.5 20.3 20.1 20.1 20.9 21.0 21.1 21.2 21.2 21.3 21.4 21.5 21.5 21.5 21.3 21.2 21.1 21.1 21.0 21.0 20.9 20.9 20.8 20.8 20.7 20.6 20.5 20.3 20.1 20.1 21.1 21.2 21.3 21.4 21.5 21.6 21.7 21.8 21.8 21.6 21.5 21.3 21.3 21.2 21.2 21.1 21.0 21.0 20.9 20.9 20.8 20.7 20.5 20.3 20.1 20.1 21.2 21.3 21.5 21.6 21.7 21.8 22.0 22.1 22.0 21.8 21.6 21.5 21.5 21.4 21.3 21.2 21.1 21.1 21.0 20.9 20.8 20.7 20.5 20.3 20.1 20.1 21.3 21.5 21.6 21.8 21.9 22.1 22.3 22.4 22.3 22.1 21.9 21.8 21.7 21.6 21.5 21.4 21.3 21.2 21.1 21.0 20.9 20.7 20.5 20.3 20.1 20.1 21.6 21.7 21.9 22.0 22.2 22.4 22.7 22.8 22.6 22.3 22.2 22.0 21.9 21.8 21.6 21.5 21.4 21.3 21.2 21.1 20.9 20.7 20.5 20.3 20.1 20.1 21.7 21.9 22.2 22.4 22.7 22.9 23.2 23.2 23.0 22.7 22.5 22.3 22.1 22.0 21.8 21.7 21.5 21.4 21.3 21.1 20.9 20.7 20.5 20.3 20.1 20.1 22.0 22.3 2