<?xml version="1.0"?>
<VTKFile type="RectilinearGrid" version="1.0" byte_order="LittleEndian" header_type="UInt64">
<RectilinearGrid WholeExtent="25 50 0 25 0 15">
<Piece Extent="25 50 0 25 0 15">
<Coordinates>
<DataArray type="Float64" Name="Array X-Axis" format="ascii" RangeMin="15.0" RangeMax="30.0">
15.0 15.6 16.2 16.8 17.4 18.0 18.6 19.2 19.8 20.4 21.0 21.6 22.2 22.8 23.4 24.0 24.6 25.2 25.8 26.4 27.0 27.6 28.2 28.8 29.4 30.0 
</DataArray>
<DataArray type="Float64" Name="Array Y-Axis" format="ascii" RangeMin="0.0" RangeMax="15.0">
0.0 0.6 1.2 1.8 2.4 3.0 3.6 4.2 4.8 5.4 6.0 6.6 7.2 7.8 8.4 9.0 9.6 10.2 10.8 11.4 12.0 12.6 13.2 13.8 14.4 15.0 
</DataArray>
<DataArray type="Float64" Name="Array Z-Axis" format="ascii" RangeMin="0.0" RangeMax="9.0">
0.0 0.6 1.2 1.8 2.4 3.0 3.6 4.2 4.8 5.4 6.0 6.6 7.2 7.8 8.4 9.0 
</DataArray>
</Coordinates>
<PointData>
<DataArray Name="TEMPERATURE" NumberOfComponents="1" type="Float64" format="ascii">
20.1 20.1 20.1 20.1 20.1 20.1 20.1 20.1 20.2 20.2 20.2 20.1 20.1 20.1 20.1 20.1 20.1 20.1 20.1 20.1 20.1 20.1 20.1 20.1 20.1 20.1 20.1 20.2 20.2 20.2 20.2 20.2 20.2 20.2 20.2 20.2 20.2 20.2 20.2 20.1 20.1 20.1 20.1 20.1 20.1 20.1 20.1 20.1 20.1 20.1 20.1 20.1 20.2 20.2 20.2 20.3 20.3 20.3 20.3 20.3 20.3 20.3 20.3 20.2 20.2 20.2 20.2 20.2 20.2 20.1 20.1 20.1 20.1 20.1 20.1 20.1 20.1 20.1 20.2 20.3 20.3 20.3 20.3 20.3 20.3 20.3 20.4 20.4 20.3 20.3 20.2 20.2 20.2 20.2 20.2 20.2 20.2 20.1 20.1 20.1 20.1 20.1 20.1 20.1 20.2 20.3 20.3 20.4 20.4 20.4 20.4 20.4 20.4 20.4 20.4 20.3 20.3 20.3 20.2 20.2 20.2 20.2 20.2 20.2 20.1 20.1 20.1 20.1 20.1 20.1 20.3 20.3 20.4 20.4 20.4 20.5 20.5 20.5 20.5 20.5 20.4 20.4 20.3 20.3 20.3 20.3 20.2 20.2 20.2 20.2 20.2 20.1 20.1 20.1 20.1 20.1 20.3 20.4 20.4 20.5 20.5 20.5 20.5 20.6 20.6 20.5 20.5 20.4 20.4 20.3 20.3 20.3 20.3 20.2 20.2 20.2 20.2 20.2 20.1 20.1 20.1 20.1 20.4 20.4 20.5 20.6 20.6 20.6 20.7 20.7 20.7 20.6 20.5 20.5 20.4 20.4 20.4 20.3 20.3 20.3 20.3 20.2 20.2 20.2 20.2 20.1 20.1 20.1 20.4 20.5 20.6 20.7 20.7 20.8 20.8 20.8 20.8 20.7 20.6 20.5 20.5 20.5 20.4 20.4 20.4 20.3 20.3 20.3 20.2 20.2 20.2 20.2 20.1 20.1 20.5 20.6 20.7 20.8 20.8 20.9 21.0 20.9 20.9 20.8 20.7 20.6 20.6 20.5 20.5 20.4 20.4 20.4 20.3 20.3 20.3 20.2 20.2 20.2 20.1 20.1 20.6 20.7 20.8 20.9 21.0 21.1 21.1 21.1 21.1 20.9 20.8 20.7 20.7 20.6 20.6 20.5 20.5 20.4 20.4 20.3 20.3 20.3 20.2 20.2 20.2 20.1 20.7 20.8 20.9 21.0 21.2 21.3 21.4 21.3 21.2 21.1 21.0 20.9 20.8 20.7 20.6 20.6 20.5 20.5 20.4 20.4 20.3 20.3 20.3 20.2 20.2 20.1 20.8 20.9 21.1 21.2 21.4 21.5 21.7 21.6 21.4 21.3 21.1 21.0 20.9 20.8 20.7 20.7 20.6 20.5 20.5 20.4 20.4 20.3 20.3 20.2 20.2 20.1 20.9 21.1 21.3 21.4 21.6 21.8 22.0 21.9 21.7 21.5 21.3 21.2 21.0 20.9 20.8 20.7 20.7 20.6 20.5 20.4 20.4 20.3 20.3 20.3 20.2 20.1 21.0 21.2 21.5 21.7 21.9 22.3 22.4 22.3 22.0 21.7 21.5 21.3 21.2 21.1 20.9 20.8 20.7 20.6 20.6 20.5 20.4 20.4 20.3 20.3 20.2 20.1 21.2 21.4 21.7 22.0 22.4 22.8 23.0 22.7 22.3 22.0 21.8 21.6 21.4 21.2 21.1 20.9 20.8 20.7 20.6 20.5 20.5 20.4 20.3 20.3 20.2 20.1 21.4 21.6 22.0 22.4 22.8 23.3 23.6 23.3 22.8 22.4 22.1 21.8 21.6 21.4 21.2 21.0 20.9 20.8 20.7 20.6 20.5 20.4 20.4 20.3 20.2 20.1 21.6 21.9 22.4 22.9 23.5 24.1 24.4 23.9 23.3 22.8 22.4 22.1 21.8 21.6 21.3 21.1 21.0 20.9 20.7 20.6 20.6 20.5 20.4 20.4 20.2 20.2 21.8 22.2 22.7 23.7 24.7 25.6 26.0 25.0 23.9 23.3 22.9 22.4 22.1 21.8 21.5 21.3 21.1 21.0 20.8 20.7 20.6 20.6 20.5 20.4 20.3 20.2 22.2 22.6 23.4 25.1 28.2 30.6 32.5 29.9 25.2 24.1 23.5 22.9 22.4 22.1 21.8 21.5 21.3 21.1 20.9 20.8 20.7 20.6 20.5 20.4 20.3 20.2 22.8 23.4 24.4 27.1 30.9 34.8 37.9 32.9 27.7 25.8 24.4 23.5 23.0 22.5 22.1 21.7 21.4 21.2 21.0 20.9 20.7 20.6 20.5 20.4 20.3 20.2 23.3 24.1 25.2 29.2 32.3 20.0 20.0 35.2 31.9 27.3 25.3 24.2 23.5 22.9 22.3 21.9 21.6 21.3 21.1 20.9 20.7 20.6 20.5 20.4 20.2 20.1 23.1 23.9 25.2 29.9 33.6 20.0 20.0 35.3 31.6 26.8 25.4 24.3 23.4 22.8 22.3 21.9 21.6 21.3 21.1 20.9 20.7 20.6 20.5 20.4 20.2 20.1 22.4 23.0 24.2 27.3 28.8 29.5 31.1 29.5 27.2 25.0 24.3 23.5 22.8 22.4 22.0 21.7 21.4 21.2 21.0 20.9 20.8 20.6 20.5 20.4 20.3 20.2 21.9 22.3 23.1 24.2 25.6 27.8 28.6 26.7 24.7 23.6 23.0 22.5 22.1 21.9 21.6 21.4 21.2 21.1 20.9 20.8 20.7 20.6 20.5 20.4 20.3 20.2 21.2 21.9 22.4 23.1 24.2 25.5 25.4 24.2 23.4 22.9 22.4 22.0 21.7 21.5 21.3 21.1 21.0 20.8 20.7 20.7 20.6 20.5 20.4 20.4 20.3 20.2 20.1 20.1 20.1 20.1 20.1 20.1 20.1 20.1 20.1 20.2 20.1 20.1 20.1 20.1 20.1 20.1 20.1 20.1 20.1 20.1 20.1 20.1 20.1 20.1 20.1 20.0 20.1 20.2 20.2 20.2 20.2 20.2 20.2 20.2 20.2 20.2 20.2 20.2 20.1 20.1 20.1 20.1 20.1 20.1 20.1 20.1 20.1 20.1 20.1 20.1 20.1 20.1 20.2 20.2 20.2 20.2 20.3 20.3 20.3 20.3 20.3 20.3 20.3 20.2 20.2 20.2 20.2 20.2 20.1 20.1 20.1 20.1 20.1 20.1 20.1 20.1 20.1 20.1 20.2 20.2 20.3 20.3 20.3 20.3 20.3 20.3 20.3 20.3 20.3 20.3 20.2 20.2 20.2 20.2 20.2 20.2 20.1 20.1 20.1 20.1 20.1 20.1 20.1 20.1 20.2 20.3 20.3 20.3 20.4 20.4 20.4 20.4 20.4 20.4 20.3 20.3 20.3 20.2 20.2 20.2 20.2 20.2 20.2 20.1 20.1 20.1 20.1 20.1 20.1 20.1 20.3 20.3 20.4 20.4 20.4 20.4 20.4 20.5 20.5 20.4 20.4 20.3 20.3 20.3 20.3 20.2 20.2 20.2 20.2 20.2 20.1 20.1 20.1 20.1 20.1 20.1 20.3 20.4 20.4 20.5 20.5 20.5 20.5 20.6 20.5 20.5 20.5 20.4 20.4 20.3 20.3 20.3 20.3 20.2 20.2 20.2 20.2 20.1 20.1 20.1 20.1 20.1 20.4 20.4 20.5 20.5 20.6 20.6 20.7 20.7 20.6 20.6 20.5 20.5 20.4 20.4 20.3 20.3 20.3 20.3 20.2 20.2 20.2 20.2 20.1 20.1 20.1 20.1 20.4 20.5 20.6 20.6 20.7 20.8 20.8 20.8 20.8 20.7 20.6 20.5 20.5 20.4 20.4 20.4 20.3 20.3 20.3 20.2 20.2 20.2 20.2 20.1 20.1 20.1 20.5 20.6 20.7 20.8 20.9 20.9 21.0 21.0 20.9 20.8 20.7 20.6 20.6 20.5 20.5 20.4 20.4 20.3 20.3 20.3 20.2 20.2 20.2 20.2 20.1 20.1 20.6 20.7 20.8 20.9 21.0 21.1 21.2 21.2 21.1 21.0 20.8 20.7 20.7 20.6 20.5 20.5 20.4 20.4 20.3 20.3 20.3 20.2 20.2 20.2 20.1 20.1 20.7 20.8 21.0 21.1 21.2 21.4 21.5 21.4 21.3 21.1 21.0 20.9 20.8 20.7 20.6 20.6 20.5 20.4 20.4 20.3 20.3 20.3 20.2 20.2 20.1 20.1 20.8 21.0 21.1 21.3 21.5 21.7 21.8 21.7 21.5 21.3 21.2 21.0 20.9 20.8 20.7 20.6 20.6 20.5 20.4 20.4 20.3 20.3 20.3 20.2 20.2 20.1 20.9 21.1 21.3 21.5 21.8 22.0 22.2 22.1 21.8 21.6 21.4 21.2 21.1 21.0 20.8 20.7 20.6 20.6 20.5 20.4 20.4 20.3 20.3 20.2 20.2 20.1 21.1 21.3 21.6 21.8 22.1 22.5 22.8 22.6 22.2 21.9 21.6 21.4 21.3 21.1 21.0 20.8 20.7 20.6 20.5 20.5 20.4 20.3 20.3 20.2 20.2 20.1 21.2 21.5 21.9 22.2 22.6 23.2 23.4 23.1 22.6 22.2 21.9 21.7 21.5 21.3 21.1 20.9 20.8 20.7 20.6 20.5 20.4 20.4 20.3 20.3 20.2 20.1 21.5 21.8 22.2 22.7 23.2 23.9 24.3 23.9 23.1 22.6 22.3 22.0 21.7 21.5 21.3 21.1 20.9 20.8 20.7 20.6 20.5 20.4 20.4 20.3 20.2 20.1 21.7 22.1 22.7 23.5 24.2 24.9 25.3 24.7 23.8 23.2 22.7 22.3 22.0 21.7 21.4 21.2 21.0 20.9 20.7 20.6 20.5 20.5 20.4 20.3 20.2 20.1 22.0 22.5 23.3 25.8 27.3 27.2 27.4 26.2 24.6 23.8 23.3 22.7 22.3 21.9 21.6 21.4 21.2 21.0 20.8 20.7 20.6 20.5 20.5 20.4 20.2 20.2 22.4 22.9 24.5 29.1 41.3 44.9 43.0 37.1 26.8 25.1 24.0 23.3 22.7 22.3 21.9 21.6 21.3 21.1 21.0 20.8 20.7 20.6 20.5 20.4 20.3 20.2 23.1 23.8 25.6 32.8 89.3 177.9 172.9 83.6 32.9 27.9 25.1 24.1 23.3 22.7 22.3 21.9 21.5 21.3 21.0 20.9 20.7 20.6 20.5 20.4 20.2 20.2 23.9 24.8 26.3 36.7 140.0 437.0 463.4 158.9 40.6 30.0 26.2 24.9 23.9 23.2 22.6 22.1 21.7 21.4 21.1 20.9 20.7 20.6 20.5 20.4 20.2 20.1 23.8 24.8 27.0 38.9 134.0 361.8 417.8 171.1 40.0 28.9 26.0 24.8 23.9 23.2 22.6 22.1 21.7 21.4 21.1 20.9 20.7 20.6 20.5 20.4 20.2 20.1 22.9 23.6 26.0 33.6 72.4 111.5 131.4 90.2 33.8 26.2 24.7 23.9 23.1 22.6 22.2 21.8 21.5 21.3 21.1 20.9 20.7 20.6 20.5 20.4 20.3 20.2 22.1 22.6 23.8 25.9 28.9 32.8 35.3 33.7 28.1 24.3 23.5 22.9 22.4 22.1 21.8 21.5 21.3 21.1 20.9 20.8 20.7 20.6 20.5 20.4 20.3 20.2 21.4 22.2 22.8 23.6 24.9 27.1 27.8 25.9 24.1 23.3 22.8 22.3 21.9 21.6 21.4 21.2 21.0 20.9 20.7 20.6 20.6 20.5 20.4 20.4 20.2 20.2 20.1 20.1 20.1 20.1 20.1 20.1 20.1 20.1 20.1 20.1 20.1 20.1 20.1 20.1 20.1 20.1 20.1 20.1 20.1 20.1 20.1 20.0 20.0 20.0 20.0 20.0 20.1 20.1 20.1 20.2 20.2 20.2 20.2 20.2 20.2 20.2 20.2 20.1 20.1 20.1 20.1 20.1 20.1 20.1 20.1 20.1 20.1 20.1 20.1 20.0 20.0 20.0 20.1 20.2 20.2 20.2 20.2 20.2 20.2 20.2 20.3 20.2 20.2 20.2 20.2 20.1 20.1 20.1 20.1 20.1 20.1 20.1 20.1 20.1 20.1 20.1 20.0 20.0 20.2 20.2 20.2 20.3 20.3 20.3 20.3 20.3 20.3 20.3 20.3 20.2 20.2 20.2 20.2 20.1 20.1 20.1 20.1 20.1 20.1 20.1 20.1 20.1 20.1 20.0 20.2 20.2 20.3 20.3 20.3 20.3 20.3 20.4 20.4 20.3 20.3 20.3 20.2 20.2 20.2 20.2 20.2 20.1 20.1 20.1 20.1 20.1 20.1 20.1 20.1 20.1 20.2 20.3 20.3 20.4 20.4 20.4 20.4 20.4 20.4 20.4 20.4 20.3 20.3 20.2 20.2 20.2 20.2 20.2 20.1 20.1 20.1 20.1 20.1 20.1 20.1 20.1 20.3 20.3 20.4 20.4 20.5 20.5 20.5 20.5 20.5 20.5 20.4 20.4 20.3 20.3 20.3 20.2 20.2 20.2 20.2 20.2 20.1 20.1 20.1 20.1 20.1 20.1 20.3 20.4 20.5 20.5 20.6 20.6 20.7 20.7 20.6 20.6 20.5 20.4 20.4 20.3 20.3 20.3 20.3 20.2 20.2 20.2 20.2 20.1 20.1 20.1 20.1 20.1 20.4 20.5 20.6 20.6 20.7 20.8 20.8 20.8 20.8 20.7 20.6 20.5 20.5 20.4 20.4 20.3 20.3 20.3 20.2 20.2 20.2 20.2 20.1 20.1 20.1 20.1 20.5 20.6 20.7 20.8 20.9 21.0 21.0 21.0 20.9 20.8 20.7 20.6 20.5 20.5 20.4 20.4 20.3 20.3 20.3 20.2 20.2 20.2 20.2 20.1 20.1 20.1 20.6 20.7 20.8 20.9 21.1 21.2 21.3 21.2 21.1 21.0 20.8 20.7 20.6 20.6 20.5 20.5 20.4 20.3 20.3 20.3 20.2 20.2 20.2 20.1 20.1 20.1 20.7 20.8 21.0 21.1 21.3 21.5 21.6 21.5 21.4 21.2 21.0 20.9 20.8 20.7 20.6 20.5 20.5 20.4 20.3 20.3 20.3 20.2 20.2 20.2 20.1 20.1 20.8 21.0 21.2 21.4 21.6 21.9 22.0 21.9 21.7 21.4 21.2 21.1 20.9 20.8 20.7 20.6 20.5 20.5 20.4 20.3 20.3 20.3 20.2 20.2 20.1 20.1 20.9 21.2 21.4 21.7 22.0 22.3 22.5 22.4 22.0 21.7 21.5 21.3 21.1 21.0 20.8 20.7 20.6 20.5 20.5 20.4 20.3 20.3 20.2 20.2 20.1 20.1 21.1 21.4 21.7 22.0 22.4 22.9 23.2 23.0 22.5 22.1 21.8 21.5 21.3 21.1 21.0 20.8 20.7 20.6 20.5 20.4 20.4 20.3 20.3 20.2 20.1 20.1 21.3 21.7 22.1 22.5 23.1 23.7 24.1 23.7 23.1 22.5 22.1 21.8 21.6 21.3 21.1 21.0 20.8 20.7 20.6 20.5 20.4 20.3 20.3 20.2 20.2 20.1 21.6 22.0 22.5 23.1 23.8 25.1 26.1 25.2 23.8 23.1 22.6 22.2 21.9 21.6 21.3 21.1 20.9 20.8 20.6 20.5 20.4 20.4 20.3 20.3 20.2 20.1 21.9 22.4 23.2 24.5 25.5 27.3 29.2 28.2 25.5 23.8 23.2 22.7 22.2 21.9 21.5 21.3 21.1 20.9 20.7 20.6 20.5 20.4 20.4 20.3 20.2 20.1 22.3 23.7 27.2 32.3 32.9 32.1 34.1 32.0 27.5 24.9 23.9 23.2 22.6 22.2 21.8 21.5 21.2 21.0 20.8 20.7 20.6 20.5 20.4 20.3 20.2 20.2 23.3 24.9 30.9 42.6 56.4 63.4 68.2 55.4 34.4 28.3 25.3 24.0 23.2 22.6 22.1 21.7 21.4 21.2 21.0 20.8 20.7 20.6 20.5 20.4 20.2 20.2 24.7 25.8 31.3 51.3 130.9 237.7 250.7 143.6 53.1 34.6 27.5 25.2 24.1 23.2 22.6 22.1 21.7 21.3 21.1 20.9 20.7 20.6 20.5 20.4 20.2 20.1 25.3 27.0 31.2 54.6 195.9 409.6 452.5 268.4 92.3 40.7 28.9 26.2 24.8 23.8 23.0 22.4 21.9 21.5 21.2 20.9 20.7 20.6 20.5 20.4 20.2 20.1 25.0 26.6 30.6 54.1 182.3 339.6 413.8 307.2 112.2 39.2 28.1 25.9 24.8 23.8 22.9 22.3 21.9 21.5 21.2 20.9 20.7 20.6 20.5 20.4 20.2 20.1 23.7 24.8 29.3 47.8 105.2 150.8 206.6 192.2 80.1 31.1 26.1 24.7 23.9 23.1 22.5 22.0 21.6 21.3 21.1 20.9 20.7 20.6 20.5 20.4 20.2 20.2 22.5 23.2 25.9 32.9 39.1 46.5 70.0 71.5 41.2 25.9 24.4 23.5 22.9 22.4 22.0 21.6 21.4 21.1 21.0 20.8 20.7 20.6 20.5 20.4 20.3 20.2 21.6 22.5 23.5 25.0 26.8 31.0 39.5 36.3 26.2 24.1 23.3 22.7 22.3 21.9 21.5 21.3 21.1 20.9 20.8 20.6 20.5 20.5 20.4 20.3 20.2 20.1 20.1 20.1 20.1 20.1 20.1 20.1 20.1 20.1 20.1 20.1 20.1 20.1 20.1 20.1 20.1 20.1 20.1 20.1 20.1 20.1 20.1 20.0 20.0 20.0 20.0 20.0 20.1 20.1 20.2 20.2 20.2 20.2 20.2 20.2 20.2 20.2 20.2 20.1 20.1 20.1 20.1 20.1 20.1 20.1 20.1 20.1 20.1 20.1 20.0 20.0 20.0 20.0 20.1 20.2 20.2 20.2 20.2 20.2 20.2 20.3 20.3 20.3 20.2 20.2 20.2 20.1 20.1 20.1 20.1 20.1 20.1 20.1 20.1 20.1 20.1 20.0 20.0 20.0 20.2 20.2 20.2 20.3 20.3 20.3 20.3 20.3 20.3 20.3 20.3 20.2 20.2 20.2 20.2 20.1 20.1 20.1 20.1 20.1 20.1 20.1 20.1 20.1 20.0 20.0 20.2 20.3 20.3 20.3 20.3 20.3 20.4 20.4 20.4 20.4 20.3 20.3 20.2 20.2 20.2 20.2 20.2 20.1 20.1 20.1 20.1 20.1 20.1 20.1 20.1 20.0 20.2 20.3 20.3 20.4 20.4 20.4 20.4 20.5 20.5 20.4 20.4 20.3 20.3 20.2 20.2 20.2 20.2 20.2 20.1 20.1 20.1 20.1 20.1 20.1 20.1 20.1 20.3 20.4 20.4 20.5 20.5 20.5 20.5 20.6 20.6 20.5 20.4 20.4 20.3 20.3 20.3 20.2 20.2 20.2 20.2 20.1 20.1 20.1 20.1 20.1 20.1 20.1 20.3 20.4 20.5 20.5 20.6 20.6 20.7 20.7 20.7 20.6 20.5 20.4 20.4 20.3 20.3 20.3 20.2 20.2 20.2 20.2 20.1 20.1 20.1 20.1 20.1 20.1 20.4 20.5 20.6 20.6 20.7 20.8 20.8 20.8 20.8 20.7 20.6 20.5 20.5 20.4 20.4 20.3 20.3 20.3 20.2 20.2 20.2 20.1 20.1 20.1 20.1 20.1 20.5 20.6 20.7 20.8 20.9 20.9 21.0 21.0 21.0 20.8 20.7 20.6 20.5 20.5 20.4 20.4 20.3 20.3 20.3 20.2 20.2 20.2 20.1 20.1 20.1 20.1 20.6 20.7 20.8 20.9 21.0 21.2 21.3 21.3 21.1 21.0 20.8 20.7 20.6 20.6 20.5 20.5 20.4 20.3 20.3 20.3 20.2 20.2 20.2 20.1 20.1 20.1 20.7 20.8 21.0 21.1 21.3 21.4 21.6 21.6 21.4 21.2 21.0 20.9 20.8 20.7 20.6 20.5 20.5 20.4 20.3 20.3 20.3 20.2 20.2 20.2 20.1 20.1 20.8 21.0 21.2 21.3 21.6 21.8 22.0 22.0 21.7 21.4 21.2 21.1 20.9 20.8 20.7 20.6 20.5 20.5 20.4 20.3 20.3 20.2 20.2 20.2 20.1 20.1 20.9 21.1 21.4 21.6 21.9 22.2 22.5 22.4 22.1 21.7 21.5 21.3 21.1 21.0 20.8 20.7 20.6 20.5 20.5 20.4 20.3 20.3 20.2 20.2 20.1 20.1 21.1 21.4 21.7 22.0 22.3 22.7 23.1 23.1 22.5 22.1 21.8 21.5 21.3 21.2 21.0 20.9 20.7 20.6 20.5 20.4 20.4 20.3 20.3 20.2 20.1 20.1 21.3 21.6 22.0 22.4 23.0 23.5 24.0 23.9 23.2 22.6 22.2 21.9 21.6 21.4 21.2 21.0 20.8 20.7 20.6 20.5 20.4 20.3 20.3 20.2 20.2 20.1 21.5 21.9 22.6 23.2 24.1 25.9 27.3 26.1 24.0 23.2 22.7 22.3 21.9 21.6 21.4 21.1 20.9 20.8 20.7 20.5 20.4 20.4 20.3 20.3 20.2 20.1 21.9 22.6 24.7 25.9 26.2 31.1 35.8 32.7 26.8 24.1 23.3 22.8 22.3 21.9 21.6 21.3 21.1 20.9 20.7 20.6 20.5 20.4 20.4 20.3 20.2 20.1 23.7 28.2 37.0 39.5 34.4 38.2 44.6 39.7 31.3 26.5 24.3 23.4 22.8 22.3 21.9 21.5 21.3 21.0 20.9 20.7 20.6 20.5 20.4 20.3 20.2 20.2 26.5 33.1 48.4 58.9 57.5 68.5 83.0 68.5 48.8 39.7 29.4 24.4 23.4 22.7 22.2 21.8 21.5 21.2 21.0 20.8 20.7 20.6 20.5 20.4 20.2 20.2 28.6 32.7 50.3 85.5 139.0 211.7 242.2 169.2 88.1 59.6 39.0 27.1 24.5 23.4 22.7 22.1 21.7 21.4 21.1 20.9 20.7 20.6 20.5 20.4 20.2 20.2 29.0 31.6 46.7 96.9 220.2 370.2 426.2 331.2 177.0 83.0 44.0 28.7 25.4 24.1 23.2 22.5 21.9 21.5 21.2 20.9 20.7 20.6 20.5 20.4 20.2 20.1 27.8 29.4 38.9 79.2 194.0 345.3 440.0 395.6 213.8 74.4 37.5 27.2 25.3 24.1 23.1 22.4 21.9 21.5 21.2 21.0 20.8 20.6 20.5 20.4 20.2 20.2 25.4 26.6 32.7 55.7 103.9 190.4 297.8 276.5 126.4 40.0 28.5 25.3 24.2 23.3 22.6 22.1 21.7 21.4 21.1 20.9 20.8 20.6 20.5 20.4 20.3 20.2 22.9 24.0 27.2 35.5 44.6 74.1 149.5 136.7 51.5 27.2 24.9 23.8 23.1 22.5 22.1 21.7 21.4 21.2 21.0 20.8 20.7 20.6 20.5 20.4 20.3 20.2 21.6 22.7 24.1 26.4 29.6 36.7 64.9 62.1 30.6 24.5 23.5 22.9 22.4 22.0 21.6 21.3 21.1 20.9 20.8 20.7 20.5 20.5 20.4 20.3 20.2 20.2 20.1 20.1 20.2 20.2 20.2 20.1 20.2 20.2 20.2 20.2 20.2 20.1 20.1 20.1 20.1 20.1 20.1 20.1 20.1 20.1 20.1 20.1 20.0 20.0 20.0 20.0 20.1 20.2 20.2 20.2 20.2 20.2 20.2 20.2 20.2 20.2 20.2 20.2 20.1 20.1 20.1 20.1 20.1 20.1 20.1 20.1 20.1 20.1 20.1 20.0 20.0 20.0 20.2 20.2 20.2 20.2 20.2 20.2 20.3 20.3 20.3 20.3 20.3 20.2 20.2 20.2 20.1 20.1 20.1 20.1 20.1 20.1 20.1 20.1 20.1 20.1 20.0 20.0 20.2 20.2 20.3 20.3 20.3 20.3 20.3 20.3 20.4 20.3 20.3 20.2 20.2 20.2 20.2 20.2 20.1 20.1 20.1 20.1 20.1 20.1 20.1 20.1 20.1 20.0 20.2 20.3 20.3 20.3 20.4 20.4 20.4 20.4 20.4 20.4 20.3 20.3 20.2 20.2 20.2 20.2 20.2 20.2 20.1 20.1 20.1 20.1 20.1 20.1 20.1 20.1 20.3 20.3 20.4 20.4 20.4 20.4 20.5 20.5 20.5 20.5 20.4 20.3 20.3 20.3 20.2 20.2 20.2 20.2 20.2 20.1 20.1 20.1 20.1 20.1 20.1 20.1 20.3 20.4 20.4 20.5 20.5 20.5 20.5 20.6 20.6 20.5 20.5 20.4 20.3 20.3 20.3 20.3 20.2 20.2 20.2 20.2 20.1 20.1 20.1 20.1 20.1 20.1 20.4 20.4 20.5 20.5 20.6 20.6 20.7 20.7 20.7 20.6 20.5 20.5 20.4 20.4 20.3 20.3 20.3 20.2 20.2 20.2 20.2 20.1 20.1 20.1 20.1 20.1 20.4 20.5 20.6 20.6 20.7 20.7 20.8 20.8 20.8 20.7 20.6 20.5 20.5 20.4 20.4 20.4 20.3 20.3 20.3 20.2 20.2 20.2 20.1 20.1 20.1 20.1 20.5 20.6 20.7 20.8 20.8 20.9 21.0 21.0 20.9 20.8 20.7 20.6 20.6 20.5 20.5 20.4 20.4 20.3 20.3 20.3 20.2 20.2 20.2 20.1 20.1 20.1 20.5 20.7 20.8 20.9 21.0 21.0 21.2 21.2 21.1 21.0 20.8 20.7 20.7 20.6 20.5 20.5 20.4 20.4 20.3 20.3 20.3 20.2 20.2 20.2 20.1 20.1 20.6 20.8 20.9 21.0 21.2 21.2 21.4 21.5 21.3 21.1 21.0 20.9 20.8 20.7 20.6 20.6 20.5 20.4 20.4 20.3 20.3 20.2 20.2 20.2 20.1 20.1 20.7 20.9 21.1 21.2 21.4 21.5 21.7 21.8 21.6 21.4 21.2 21.0 20.9 20.8 20.7 20.6 20.6 20.5 20.4 20.4 20.3 20.3 20.2 20.2 20.2 20.1 20.8 21.0 21.3 21.5 21.6 21.8 22.1 22.2 21.9 21.6 21.4 21.2 21.1 21.0 20.9 20.7 20.7 20.6 20.5 20.4 20.4 20.3 20.3 20.2 20.2 20.1 21.0 21.2 21.5 21.7 21.9 22.1 22.6 22.8 22.3 22.0 21.7 21.5 21.3 21.1 21.0 20.9 20.7 20.6 20.6 20.5 20.4 20.3 20.3 20.2 20.2 20.1 21.1 21.4 21.8 22.1 22.3 22.7 23.3 23.5 22.9 22.4 22.0 21.8 21.5 21.3 21.1 21.0 20.8 20.7 20.6 20.5 20.4 20.4 20.3 20.3 20.2 20.1 21.6 21.9 22.4 22.9 23.5 25.0 26.8 25.9 23.8 22.9 22.5 22.1 21.8 21.6 21.3 21.1 20.9 20.8 20.7 20.6 20.5 20.4 20.3 20.3 20.2 20.1 22.4 23.5 25.6 25.9 24.9 29.5 34.8 32.0 26.5 23.8 23.1 22.6 22.2 21.8 21.5 21.3 21.1 20.9 20.8 20.6 20.5 20.5 20.4 20.3 20.2 20.2 24.8 31.4 39.4 38.0 29.9 34.8 43.4 39.2 31.6 26.4 24.1 23.2 22.6 22.2 21.8 21.5 21.2 21.0 20.9 20.7 20.6 20.5 20.4 20.4 20.3 20.2 31.7 47.9 67.4 66.6 47.6 54.4 70.9 65.5 54.4 43.4 31.3 24.2 23.3 22.6 22.1 21.8 21.5 21.2 21.0 20.8 20.7 20.6 20.5 20.4 20.3 20.2 37.4 58.7 93.6 120.0 111.5 136.5 177.4 154.0 106.1 71.5 45.5 27.2 24.3 23.3 22.6 22.1 21.7 21.4 21.1 20.9 20.7 20.6 20.5 20.4 20.3 20.2 37.4 54.6 94.8 149.1 170.9 253.2 343.5 312.7 209.4 104.7 52.3 29.1 25.3 24.0 23.1 22.4 21.9 21.5 21.2 21.0 20.8 20.6 20.5 20.4 20.3 20.2 34.4 44.5 71.0 113.4 143.4 287.9 427.6 385.0 233.4 91.2 43.6 27.4 25.2 23.9 23.0 22.4 21.9 21.5 21.2 21.0 20.8 20.6 20.5 20.4 20.3 20.2 29.1 34.8 44.8 60.9 78.6 199.6 348.0 290.6 124.9 43.7 30.9 25.2 24.0 23.2 22.5 22.1 21.7 21.4 21.1 20.9 20.8 20.6 20.5 20.4 20.3 20.2 24.4 27.3 30.8 34.5 42.2 87.7 188.7 160.7 50.0 27.1 25.0 23.6 23.0 22.5 22.0 21.7 21.4 21.2 21.0 20.9 20.7 20.6 20.5 20.4 20.3 20.2 21.8 23.6 25.8 27.7 30.3 37.2 71.3 68.2 30.5 24.2 23.3 22.7 22.3 21.9 21.6 21.3 21.1 20.9 20.8 20.7 20.6 20.5 20.4 20.4 20.3 20.2 20.1 20.2 20.2 20.2 20.2 20.2 20.2 20.2 20.2 20.2 20.2 20.2 20.1 20.1 20.1 20.1 20.1 20.1 20.1 20.1 20.1 20.1 20.1 20.1 20.1 20.0 20.2 20.2 20.2 20.2 20.2 20.2 20.2 20.2 20.3 20.3 20.2 20.2 20.2 20.1 20.1 20.1 20.1 20.1 20.1 20.1 20.1 20.1 20.1 20.1 20.1 20.1 20.2 20.2 20.2 20.3 20.3 20.3 20.3 20.3 20.3 20.3 20.3 20.2 20.2 20.2 20.2 20.2 20.1 20.1 20.1 20.1 20.1 20.1 20.1 20.1 20.1 20.1 20.2 20.3 20.3 20.3 20.3 20.3 20.3 20.3 20.4 20.4 20.3 20.3 20.2 20.2 20.2 20.2 20.2 20.2 20.1 20.1 20.1 20.1 20.1 20.1 20.1 20.1 20.2 20.3 20.3 20.3 20.4 20.4 20.4 20.4 20.4 20.4 20.4 20.3 20.3 20.2 20.2 20.2 20.2 20.2 20.2 20.1 20.1 20.1 20.1 20.1 20.1 20.1 20.3 20.3 20.4 20.4 20.4 20.4 20.4 20.5 20.5 20.5 20.4 20.3 20.3 20.3 20.3 20.2 20.2 20.2 20.2 20.2 20.2 20.1 20.1 20.1 20.1 20.1 20.3 20.4 20.4 20.5 20.5 20.5 20.5 20.5 20.6 20.5 20.5 20.4 20.4 20.3 20.3 20.3 20.3 20.2 20.2 20.2 20.2 20.2 20.1 20.1 20.1 20.1 20.3 20.4 20.5 20.5 20.5 20.6 20.6 20.6 20.6 20.6 20.5 20.5 20.4 20.4 20.4 20.3 20.3 20.3 20.2 20.2 20.2 20.2 20.2 20.1 20.1 20.1 20.4 20.5 20.5 20.6 20.6 20.7 20.7 20.8 20.7 20.7 20.6 20.5 20.5 20.4 20.4 20.4 20.3 20.3 20.3 20.2 20.2 20.2 20.2 20.2 20.1 20.1 20.4 20.5 20.6 20.7 20.7 20.8 20.8 20.9 20.9 20.8 20.7 20.6 20.5 20.5 20.5 20.4 20.4 20.3 20.3 20.3 20.2 20.2 20.2 20.2 20.1 20.1 20.5 20.6 20.7 20.8 20.8 20.9 21.0 21.1 21.0 20.9 20.8 20.7 20.6 20.6 20.5 20.5 20.4 20.4 20.4 20.3 20.3 20.2 20.2 20.2 20.2 20.1 20.6 20.7 20.8 20.9 21.0 21.1 21.2 21.3 21.2 21.0 20.9 20.8 20.7 20.7 20.6 20.6 20.5 20.4 20.4 20.4 20.3 20.3 20.2 20.2 20.2 20.1 20.7 20.8 21.0 21.0 21.1 21.2 21.5 21.5 21.4 21.2 21.1 20.9 20.9 20.8 20.7 20.6 20.6 20.5 20.4 20.4 20.4 20.3 20.3 20.2 20.2 20.1 20.8 20.9 21.1 21.2 21.3 21.5 21.8 21.9 21.7 21.4 21.2 21.1 21.0 20.9 20.8 20.7 20.6 20.6 20.5 20.4 20.4 20.3 20.3 20.3 20.2 20.2 20.9 21.1 21.3 21.4 21.5 21.7 22.2 22.3 22.0 21.7 21.5 21.3 21.2 21.0 20.9 20.8 20.7 20.6 20.6 20.5 20.4 20.4 20.3 20.3 20.2 20.2 21.1 21.4 21.5 21.6 21.7 22.0 22.7 23.0 22.5 22.0 21.8 21.6 21.4 21.2 21.1 20.9 20.8 20.7 20.6 20.5 20.5 20.4 20.3 20.3 20.2 20.2 23.5 22.9 22.3 22.3 22.3 23.2 25.1 24.9 23.2 22.5 22.1 21.9 21.6 21.4 21.2 21.0 20.9 20.8 20.7 20.6 20.5 20.4 20.4 20.3 20.2 20.2 25.9 25.6 25.0 23.8 23.0 25.0 28.2 27.8 24.9 23.1 22.6 22.3 21.9 21.6 21.4 21.2 21.0 20.9 20.7 20.6 20.6 20.5 20.4 20.4 20.3 20.2 27.1 31.6 34.8 30.5 25.8 29.0 33.2 32.1 28.2 24.7 23.5 22.7 22.3 21.9 21.6 21.4 21.2 21.0 20.9 20.7 20.6 20.5 20.5 20.4 20.3 20.2 42.4 66.3 78.6 58.1 34.4 39.9 49.1 50.5 44.0 34.4 28.6 23.5 22.9 22.3 21.9 21.6 21.3 21.1 21.0 20.8 20.7 20.6 20.5 20.4 20.3 20.2 61.0 104.9 135.1 106.4 63.1 80.4 107.8 122.6 99.6 56.1 38.6 25.3 23.7 22.9 22.3 21.9 21.5 21.3 21.1 20.9 20.7 20.6 20.5 20.4 20.3 20.2 65.1 105.5 146.8 129.7 106.3 177.4 240.8 257.2 195.7 89.9 45.7 27.0 24.7 23.6 22.7 22.1 21.7 21.4 21.1 20.9 20.8 20.6 20.5 20.4 20.3 20.2 60.2 82.8 108.8 98.8 110.1 232.1 327.9 304.8 194.8 84.6 42.5 26.6 24.5 23.5 22.7 22.1 21.7 21.4 21.1 20.9 20.8 20.6 20.5 20.4 20.3 20.2 47.1 55.0 60.8 56.5 68.7 159.5 264.2 221.4 98.2 43.7 31.7 24.6 23.5 22.8 22.2 21.8 21.5 21.3 21.1 20.9 20.8 20.7 20.6 20.5 20.3 20.2 34.5 35.7 36.8 37.2 37.8 66.1 132.5 114.7 42.5 26.4 24.6 23.2 22.6 22.2 21.8 21.5 21.3 21.1 21.0 20.8 20.7 20.6 20.5 20.5 20.3 20.3 27.1 28.5 28.6 29.0 28.6 31.0 46.8 44.0 26.0 23.5 22.9 22.4 22.0 21.7 21.4 21.2 21.0 20.9 20.8 20.7 20.6 20.5 20.5 20.4 20.3 20.2 20.1 20.2 20.2 20.2 20.2 20.2 20.2 20.2 20.2 20.2 20.2 20.2 20.2 20.1 20.1 20.1 20.1 20.1 20.1 20.1 20.1 20.1 20.1 20.1 20.1 20.1 20.2 20.2 20.2 20.2 20.2 20.2 20.2 20.2 20.3 20.3 20.2 20.2 20.2 20.2 20.1 20.1 20.1 20.1 20.1 20.1 20.1 20.1 20.1 20.1 20.1 20.1 20.2 20.2 20.2 20.3 20.3 20.2 20.2 20.3 20.3 20.3 20.3 20.2 20.2 20.2 20.2 20.2 20.2 20.2 20.1 20.1 20.1 20.1 20.1 20.1 20.1 20.1 20.2 20.2 20.3 20.3 20.3 20.3 20.3 20.3 20.3 20.3 20.3 20.3 20.2 20.2 20.2 20.2 20.2 20.2 20.2 20.1 20.1 20.1 20.1 20.1 20.1 20.1 20.2 20.3 20.3 20.3 20.3 20.3 20.3 20.4 20.4 20.4 20.3 20.3 20.3 20.2 20.2 20.2 20.2 20.2 20.2 20.2 20.1 20.1 20.1 20.1 20.1 20.1 20.3 20.3 20.3 20.4 20.4 20.4 20.4 20.4 20.4 20.4 20.4 20.3 20.3 20.3 20.3 20.2 20.2 20.2 20.2 20.2 20.2 20.2 20.1 20.1 20.1 20.1 20.3 20.3 20.4 20.4 20.4 20.4 20.4 20.5 20.5 20.5 20.4 20.4 20.3 20.3 20.3 20.3 20.3 20.2 20.2 20.2 20.2 20.2 20.2 20.1 20.1 20.1 20.3 20.4 20.4 20.5 20.5 20.5 20.5 20.5 20.6 20.5 20.5 20.4 20.4 20.4 20.3 20.3 20.3 20.3 20.2 20.2 20.2 20.2 20.2 20.2 20.1 20.1 20.4 20.4 20.5 20.5 20.5 20.6 20.6 20.6 20.6 20.6 20.5 20.5 20.4 20.4 20.4 20.4 20.3 20.3 20.3 20.3 20.2 20.2 20.2 20.2 20.1 20.1 20.4 20.5 20.5 20.6 20.6 20.7 20.7 20.8 20.7 20.7 20.6 20.5 20.5 20.5 20.4 20.4 20.4 20.3 20.3 20.3 20.3 20.2 20.2 20.2 20.2 20.1 20.5 20.5 20.6 20.7 20.7 20.8 20.8 20.9 20.9 20.8 20.7 20.6 20.6 20.5 20.5 20.5 20.4 20.4 20.3 20.3 20.3 20.3 20.2 20.2 20.2 20.2 20.5 20.6 20.7 20.8 20.8 20.9 21.0 21.1 21.0 20.9 20.8 20.7 20.7 20.6 20.6 20.5 20.5 20.4 20.4 20.3 20.3 20.3 20.3 20.2 20.2 20.2 20.6 20.7 20.8 20.9 20.9 21.1 21.2 21.3 21.2 21.1 20.9 20.8 20.8 20.7 20.6 20.6 20.5 20.5 20.4 20.4 20.3 20.3 20.3 20.2 20.2 20.2 20.7 20.8 20.9 21.0 21.1 21.2 21.5 21.6 21.4 21.2 21.1 21.0 20.9 20.8 20.7 20.7 20.6 20.5 20.5 20.4 20.4 20.3 20.3 20.3 20.2 20.2 20.8 20.9 21.0 21.1 21.2 21.4 21.8 21.9 21.7 21.5 21.3 21.1 21.0 20.9 20.8 20.7 20.7 20.6 20.5 20.5 20.4 20.4 20.3 20.3 20.2 20.2 21.0 21.3 21.3 21.3 21.3 21.7 22.2 22.4 22.1 21.7 21.5 21.4 21.2 21.1 20.9 20.8 20.7 20.6 20.6 20.5 20.4 20.4 20.3 20.3 20.2 20.2 25.6 23.8 22.3 21.8 21.7 22.3 23.5 23.6 22.6 22.1 21.8 21.6 21.4 21.2 21.1 20.9 20.8 20.7 20.6 20.5 20.5 20.4 20.4 20.3 20.2 20.2 31.5 27.3 24.1 22.3 22.6 24.1 25.9 26.2 24.2 22.7 22.2 21.9 21.6 21.4 21.2 21.0 20.9 20.8 20.7 20.6 20.5 20.5 20.4 20.4 20.3 20.2 33.3 33.4 30.6 25.2 25.6 29.4 31.1 30.1 26.6 23.9 22.9 22.3 22.0 21.7 21.4 21.2 21.0 20.9 20.8 20.7 20.6 20.5 20.5 20.4 20.3 20.3 54.8 78.4 68.7 38.6 33.4 40.2 41.4 40.8 34.9 29.2 26.2 22.9 22.4 22.0 21.7 21.4 21.2 21.0 20.9 20.8 20.7 20.6 20.5 20.4 20.3 20.3 95.5 138.5 118.0 64.7 66.0 84.7 88.6 108.4 87.7 45.0 33.0 24.1 23.1 22.4 22.0 21.6 21.3 21.1 20.9 20.8 20.7 20.6 20.5 20.4 20.3 20.2 114.7 149.2 127.5 85.8 128.2 180.1 188.2 218.7 178.1 84.2 42.6 25.5 23.8 22.9 22.3 21.8 21.5 21.2 21.0 20.8 20.7 20.6 20.5 20.4 20.3 20.2 103.9 117.8 96.4 68.6 128.6 193.8 206.4 207.8 157.0 85.0 42.3 25.4 23.6 22.9 22.2 21.8 21.5 21.2 21.0 20.8 20.7 20.6 20.5 20.4 20.3 20.2 79.5 77.9 61.4 44.3 65.6 101.8 130.4 115.8 65.7 42.6 30.6 23.8 22.8 22.4 21.9 21.6 21.3 21.1 20.9 20.8 20.7 20.6 20.5 20.5 20.3 20.3 62.2 52.2 44.6 39.5 34.1 41.2 63.5 58.2 32.8 25.2 23.8 22.7 22.2 21.9 21.6 21.3 21.1 21.0 20.9 20.8 20.7 20.6 20.5 20.5 20.4 20.3 49.8 49.8 41.3 34.6 28.7 26.8 28.4 27.4 24.0 22.9 22.4 22.1 21.8 21.5 21.3 21.1 20.9 20.8 20.7 20.6 20.6 20.5 20.4 20.4 20.3 20.3 20.1 20.2 20.2 20.2 20.2 20.2 20.2 20.2 20.2 20.2 20.2 20.2 20.2 20.1 20.1 20.1 20.1 20.1 20.1 20.1 20.1 20.1 20.1 20.1 20.1 20.1 20.2 20.2 20.2 20.2 20.2 20.2 20.2 20.2 20.2 20.3 20.2 20.2 20.2 20.2 20.1 20.1 20.1 20.1 20.1 20.1 20.1 20.1 20.1 20.1 20.1 20.1 20.2 20.2 20.2 20.2 20.2 20.2 20.2 20.2 20.3 20.3 20.3 20.2 20.2 20.2 20.2 20.2 20.2 20.2 20.1 20.1 20.1 20.1 20.1 20.1 20.1 20.1 20.2 20.2 20.2 20.3 20.3 20.3 20.3 20.3 20.3 20.3 20.3 20.2 20.2 20.2 20.2 20.2 20.2 20.2 20.2 20.1 20.1 20.1 20.1 20.1 20.1 20.1 20.2 20.2 20.3 20.3 20.3 20.3 20.3 20.3 20.3 20.3 20.3 20.3 20.2 20.2 20.2 20.2 20.2 20.2 20.2 20.2 20.1 20.1 20.1 20.1 20.1 20.1 20.2 20.3 20.3 20.3 20.3 20.3 20.3 20.3 20.4 20.4 20.3 20.3 20.3 20.3 20.2 20.2 20.2 20.2 20.2 20.2 20.2 20.2 20.1 20.1 20.1 20.1 20.3 20.3 20.3 20.4 20.4 20.4 20.4 20.4 20.4 20.4 20.4 20.3 20.3 20.3 20.3 20.3 20.2 20.2 20.2 20.2 20.2 20.2 20.2 20.1 20.1 20.1 20.3 20.3 20.4 20.4 20.4 20.4 20.4 20.5 20.5 20.5 20.4 20.4 20.3 20.3 20.3 20.3 20.3 20.3 20.2 20.2 20.2 20.2 20.2 20.2 20.1 20.1 20.3 20.4 20.4 20.4 20.5 20.5 20.5 20.5 20.5 20.5 20.5 20.4 20.4 20.4 20.3 20.3 20.3 20.3 20.3 20.2 20.2 20.2 20.2 20.2 20.2 20.1 20.4 20.4 20.5 20.5 20.5 20.6 20.6 20.6 20.6 20.6 20.5 20.5 20.4 20.4 20.4 20.4 20.3 20.3 20.3 20.3 20.2 20.2 20.2 20.2 20.2 20.2 20.4 20.5 20.5 20.6 20.6 20.7 20.7 20.7 20.7 20.7 20.6 20.5 20.5 20.5 20.4 20.4 20.4 20.3 20.3 20.3 20.3 20.2 20.2 20.2 20.2 20.2 20.5 20.5 20.6 20.6 20.7 20.8 20.9 20.9 20.9 20.8 20.7 20.6 20.6 20.5 20.5 20.5 20.4 20.4 20.3 20.3 20.3 20.3 20.2 20.2 20.2 20.2 20.5 20.6 20.7 20.7 20.8 20.9 21.0 21.1 21.0 20.9 20.8 20.7 20.7 20.6 20.6 20.5 20.5 20.4 20.4 20.3 20.3 20.3 20.3 20.2 20.2 20.2 20.6 20.7 20.7 20.8 20.9 21.0 21.2 21.3 21.2 21.1 20.9 20.8 20.8 20.7 20.6 20.6 20.5 20.5 20.4 20.4 20.3 20.3 20.3 20.2 20.2 20.2 20.6 20.8 20.8 20.9 21.0 21.2 21.5 21.6 21.4 21.3 21.1 21.0 20.9 20.8 20.7 20.6 20.6 20.5 20.5 20.4 20.4 20.3 20.3 20.3 20.2 20.2 20.9 21.1 21.1 21.0 21.2 21.4 21.8 21.9 21.7 21.5 21.3 21.2 21.0 20.9 20.8 20.7 20.6 20.6 20.5 20.4 20.4 20.3 20.3 20.3 20.2 20.2 24.3 23.1 22.1 21.6 21.6 21.9 22.5 22.7 22.3 21.8 21.5 21.4 21.2 21.0 20.9 20.8 20.7 20.6 20.5 20.5 20.4 20.4 20.3 20.3 20.2 20.2 32.5 27.8 24.9 23.2 23.3 23.7 25.4 27.1 25.5 22.7 21.8 21.6 21.4 21.2 21.0 20.9 20.8 20.7 20.6 20.5 20.5 20.4 20.4 20.3 20.3 20.2 39.6 39.3 34.4 28.5 28.6 30.0 34.8 34.7 29.1 24.0 22.3 21.9 21.6 21.4 21.2 21.0 20.9 20.8 20.7 20.6 20.5 20.5 20.4 20.4 20.3 20.3 62.5 80.2 63.8 41.6 41.7 43.4 51.4 47.7 34.9 26.5 23.8 22.4 22.0 21.7 21.4 21.2 21.0 20.9 20.8 20.7 20.6 20.5 20.5 20.4 20.3 20.3 116.5 141.4 105.3 74.6 84.7 88.5 102.1 106.9 72.6 35.5 28.1 23.2 22.5 22.0 21.7 21.4 21.1 21.0 20.8 20.7 20.6 20.5 20.4 20.4 20.3 20.2 148.6 168.8 125.9 110.1 135.7 142.1 160.0 181.2 136.5 62.2 36.4 24.3 23.0 22.4 21.9 21.5 21.2 21.0 20.8 20.7 20.6 20.5 20.4 20.4 20.3 20.2 135.4 142.0 108.2 100.4 113.3 108.8 120.0 135.5 111.8 62.5 36.7 24.3 22.9 22.4 21.8 21.5 21.2 21.0 20.8 20.7 20.6 20.5 20.4 20.4 20.3 20.2 111.9 99.9 75.6 63.8 56.5 47.5 53.2 53.5 43.2 34.2 27.6 23.1 22.3 22.0 21.6 21.3 21.1 20.9 20.8 20.7 20.6 20.5 20.5 20.4 20.3 20.3 98.5 80.1 61.8 49.1 38.0 32.9 34.6 33.4 27.0 23.9 22.9 22.2 21.8 21.6 21.3 21.1 21.0 20.8 20.7 20.7 20.6 20.5 20.5 20.4 20.3 20.3 77.5 78.2 58.4 44.3 32.0 26.7 24.7 24.1 23.0 22.3 22.0 21.7 21.5 21.3 21.1 20.9 20.8 20.7 20.6 20.6 20.5 20.4 20.4 20.4 20.3 20.3 20.1 20.2 20.2 20.2 20.2 20.2 20.2 20.2 20.2 20.2 20.2 20.2 20.2 20.1 20.1 20.1 20.1 20.1 20.1 20.1 20.1 20.1 20.1 20.1 20.1 20.1 20.1 20.2 20.2 20.2 20.2 20.2 20.2 20.2 20.2 20.2 20.2 20.2 20.2 20.1 20.1 20.1 20.1 20.1 20.1 20.1 20.1 20.1 20.1 20.1 20.1 20.1 20.2 20.2 20.2 20.2 20.2 20.2 20.2 20.2 20.2 20.2 20.2 20.2 20.2 20.2 20.2 20.1 20.1 20.1 20.1 20.1 20.1 20.1 20.1 20.1 20.1 20.1 20.2 20.2 20.2 20.2 20.2 20.2 20.2 20.2 20.3 20.3 20.3 20.2 20.2 20.2 20.2 20.2 20.2 20.2 20.1 20.1 20.1 20.1 20.1 20.1 20.1 20.1 20.2 20.2 20.2 20.3 20.3 20.3 20.2 20.3 20.3 20.3 20.3 20.2 20.2 20.2 20.2 20.2 20.2 20.2 20.2 20.2 20.1 20.1 20.1 20.1 20.1 20.1 20.2 20.2 20.3 20.3 20.3 20.3 20.3 20.3 20.3 20.3 20.3 20.3 20.2 20.2 20.2 20.2 20.2 20.2 20.2 20.2 20.2 20.1 20.1 20.1 20.1 20.1 20.2 20.3 20.3 20.3 20.3 20.3 20.3 20.3 20.4 20.4 20.3 20.3 20.3 20.3 20.2 20.2 20.2 20.2 20.2 20.2 20.2 20.2 20.1 20.1 20.1 20.1 20.3 20.3 20.3 20.3 20.4 20.4 20.4 20.4 20.4 20.4 20.4 20.3 20.3 20.3 20.3 20.3 20.2 20.2 20.2 20.2 20.2 20.2 20.2 20.1 20.1 20.1 20.3 20.3 20.4 20.4 20.4 20.4 20.4 20.5 20.5 20.5 20.4 20.4 20.3 20.3 20.3 20.3 20.3 20.3 20.2 20.2 20.2 20.2 20.2 20.2 20.1 20.1 20.3 20.4 20.4 20.4 20.5 20.5 20.5 20.5 20.5 20.5 20.5 20.4 20.4 20.4 20.3 20.3 20.3 20.3 20.3 20.2 20.2 20.2 20.2 20.2 20.2 20.1 20.4 20.4 20.4 20.5 20.5 20.6 20.6 20.6 20.6 20.6 20.5 20.5 20.4 20.4 20.4 20.4 20.3 20.3 20.3 20.3 20.2 20.2 20.2 20.2 20.2 20.2 20.4 20.5 20.5 20.5 20.6 20.7 20.7 20.7 20.7 20.7 20.6 20.5 20.5 20.5 20.4 20.4 20.4 20.3 20.3 20.3 20.3 20.2 20.2 20.2 20.2 20.2 20.4 20.5 20.5 20.6 20.7 20.8 20.9 20.9 20.9 20.8 20.7 20.6 20.6 20.5 20.5 20.4 20.4 20.4 20.3 20.3 20.3 20.3 20.2 20.2 20.2 20.2 20.5 20.6 20.6 20.7 20.8 20.9 21.0 21.1 21.0 20.9 20.8 20.7 20.7 20.6 20.6 20.5 20.5 20.4 20.4 20.3 20.3 20.3 20.2 20.2 20.2 20.2 20.6 20.7 20.7 20.7 20.8 21.0