<?xml version="1.0"?>
<VTKFile type="RectilinearGrid" version="1.0" byte_order="LittleEndian" header_type="UInt64">
<RectilinearGrid WholeExtent="25 50 0 25 0 15">
<Piece Extent="25 50 0 25 0 15">
<Coordinates>
<DataArray type="Float64" Name="Array X-Axis" format="ascii" RangeMin="15.0" RangeMax="30.0">
15.0 15.6 16.2 16.8 17.4 18.0 18.6 19.2 19.8 20.4 21.0 21.6 22.2 22.8 23.4 24.0 24.6 25.2 25.8 26.4 27.0 27.6 28.2 28.8 29.4 30.0 
</DataArray>
<DataArray type="Float64" Name="Array Y-Axis" format="ascii" RangeMin="0.0" RangeMax="15.0">
0.0 0.6 1.2 1.8 2.4 3.0 3.6 4.2 4.8 5.4 6.0 6.6 7.2 7.8 8.4 9.0 9.6 10.2 10.8 11.4 12.0 12.6 13.2 13.8 14.4 15.0 
</DataArray>
<DataArray type="Float64" Name="Array Z-Axis" format="ascii" RangeMin="0.0" RangeMax="9.0">
0.0 0.6 1.2 1.8 2.4 3.0 3.6 4.2 4.8 5.4 6.0 6.6 7.2 7.8 8.4 9.0 
</DataArray>
</Coordinates>
<PointData>
<DataArray Name="TEMPERATURE" NumberOfComponents="1" type="Float64" format="ascii">
20.0 20.0 20.0 20.0 20.0 20.0 20.0 20.0 20.0 20.0 20.0 20.0 20.0 20.0 20.0 20.1 20.1 20.1 20.1 20.1 20.1 20.1 20.1 20.1 20.1 20.1 20.1 20.1 20.1 20.1 20.1 20.1 20.1 20.1 20.1 20.1 20.1 20.1 20.1 20.1 20.1 20.1 20.1 20.1 20.1 20.1 20.1 20.1 20.1 20.1 20.1 20.1 20.2 20.2 20.2 20.2 20.2 20.2 20.2 20.2 20.3 20.3 20.3 20.2 20.2 20.2 20.2 20.2 20.2 20.2 20.2 20.2 20.2 20.2 20.2 20.1 20.1 20.1 20.3 20.3 20.4 20.4 20.4 20.4 20.4 20.4 20.4 20.4 20.4 20.4 20.3 20.3 20.3 20.3 20.3 20.3 20.3 20.2 20.2 20.2 20.2 20.2 20.1 20.1 20.4 20.4 20.5 20.5 20.5 20.5 20.5 20.5 20.6 20.6 20.5 20.5 20.4 20.4 20.4 20.4 20.3 20.3 20.3 20.3 20.2 20.2 20.2 20.2 20.1 20.1 20.4 20.5 20.6 20.6 20.6 20.6 20.6 20.7 20.7 20.7 20.6 20.5 20.5 20.4 20.4 20.4 20.4 20.3 20.3 20.3 20.3 20.2 20.2 20.2 20.1 20.1 20.5 20.6 20.6 20.7 20.7 20.7 20.7 20.8 20.8 20.8 20.7 20.6 20.5 20.5 20.5 20.5 20.4 20.4 20.4 20.3 20.3 20.3 20.2 20.2 20.1 20.1 20.6 20.7 20.7 20.8 20.9 20.9 20.9 20.9 20.9 20.9 20.8 20.7 20.6 20.6 20.6 20.5 20.5 20.4 20.4 20.4 20.3 20.3 20.3 20.2 20.1 20.1 20.7 20.7 20.8 20.9 21.0 21.0 21.1 21.1 21.1 21.0 20.9 20.8 20.7 20.7 20.6 20.6 20.5 20.5 20.4 20.4 20.4 20.3 20.3 20.2 20.1 20.1 20.7 20.9 21.0 21.1 21.2 21.2 21.3 21.3 21.2 21.1 21.0 20.9 20.8 20.8 20.7 20.7 20.6 20.5 20.5 20.4 20.4 20.4 20.3 20.2 20.1 20.1 20.9 21.0 21.1 21.3 21.4 21.5 21.5 21.5 21.4 21.3 21.1 21.0 21.0 20.9 20.8 20.8 20.7 20.6 20.6 20.5 20.4 20.4 20.3 20.3 20.1 20.1 21.0 21.1 21.3 21.5 21.6 21.8 21.8 21.8 21.6 21.5 21.3 21.2 21.1 21.0 20.9 20.8 20.8 20.7 20.6 20.6 20.5 20.4 20.4 20.3 20.1 20.1 21.1 21.3 21.5 21.7 21.9 22.1 22.2 22.1 21.9 21.7 21.5 21.4 21.3 21.2 21.1 20.9 20.8 20.8 20.7 20.6 20.5 20.5 20.4 20.3 20.1 20.1 21.3 21.5 21.7 22.0 22.2 22.5 22.6 22.5 22.2 22.0 21.8 21.6 21.5 21.3 21.2 21.1 20.9 20.8 20.7 20.7 20.6 20.5 20.4 20.3 20.1 20.0 21.5 21.7 22.0 22.3 22.6 23.0 23.2 23.0 22.6 22.3 22.0 21.8 21.7 21.5 21.3 21.2 21.0 20.9 20.8 20.7 20.6 20.5 20.4 20.3 20.1 20.0 21.7 22.0 22.3 22.7 23.1 23.6 23.9 23.6 23.1 22.7 22.4 22.1 21.9 21.7 21.5 21.3 21.1 21.0 20.9 20.8 20.7 20.6 20.4 20.3 20.1 20.0 22.0 22.3 22.7 23.1 23.6 24.3 24.9 24.5 23.6 23.1 22.8 22.4 22.1 21.9 21.6 21.4 21.2 21.1 20.9 20.8 20.7 20.6 20.4 20.3 20.1 20.1 22.3 22.7 23.1 23.7 24.5 25.8 27.5 26.5 24.3 23.6 23.2 22.8 22.4 22.1 21.8 21.6 21.4 21.2 21.0 20.9 20.8 20.7 20.5 20.3 20.1 20.1 22.7 23.1 23.7 24.9 26.3 30.4 35.3 31.5 25.5 24.3 23.7 23.2 22.7 22.3 22.0 21.7 21.5 21.3 21.2 21.0 20.9 20.7 20.5 20.3 20.1 20.1 23.1 23.7 24.5 26.8 29.1 36.6 55.3 49.8 29.1 25.4 24.5 23.8 23.2 22.7 22.3 22.0 21.7 21.5 21.3 21.2 21.0 20.8 20.6 20.3 20.1 20.1 24.0 24.6 25.7 28.6 31.0 39.3 69.4 58.7 35.0 27.2 25.8 24.6 23.8 23.1 22.7 22.2 21.9 21.6 21.4 21.2 21.0 20.8 20.5 20.3 20.1 20.1 24.8 25.7 28.1 34.3 38.6 20.0 20.0 44.6 37.3 28.7 26.5 25.2 24.2 23.5 22.9 22.4 22.0 21.7 21.4 21.2 21.0 20.7 20.5 20.3 20.1 20.1 24.7 25.8 28.7 37.5 43.9 20.0 20.0 40.4 34.9 28.0 25.9 25.0 24.2 23.4 22.8 22.4 22.0 21.7 21.4 21.2 21.0 20.7 20.5 20.3 20.1 20.1 23.7 24.5 26.5 31.6 33.7 32.4 33.1 32.9 30.1 26.5 25.1 24.2 23.6 22.9 22.5 22.2 21.8 21.6 21.4 21.2 21.0 20.8 20.5 20.3 20.1 20.1 22.9 23.4 24.5 26.2 28.0 29.9 30.2 28.1 26.0 25.1 24.2 23.3 22.9 22.4 22.1 21.8 21.6 21.4 21.3 21.1 21.0 20.8 20.5 20.3 20.1 20.1 22.0 22.9 23.6 24.4 25.6 26.6 26.5 25.5 24.5 23.9 23.3 22.8 22.4 22.1 21.8 21.6 21.4 21.2 21.1 20.9 20.8 20.7 20.5 20.3 20.1 20.1 20.0 20.0 20.0 20.0 20.0 20.0 20.0 20.0 20.0 20.0 20.0 20.0 20.0 20.0 20.0 20.0 20.1 20.1 20.1 20.1 20.1 20.1 20.1 20.1 20.1 20.1 20.1 20.1 20.1 20.1 20.1 20.1 20.1 20.1 20.1 20.1 20.1 20.1 20.1 20.1 20.1 20.1 20.1 20.1 20.1 20.1 20.1 20.1 20.1 20.1 20.1 20.1 20.2 20.2 20.2 20.2 20.2 20.2 20.2 20.2 20.2 20.3 20.2 20.2 20.2 20.2 20.2 20.2 20.2 20.2 20.2 20.2 20.2 20.1 20.1 20.1 20.1 20.1 20.3 20.3 20.3 20.4 20.4 20.4 20.4 20.4 20.4 20.4 20.4 20.3 20.3 20.3 20.3 20.3 20.3 20.2 20.2 20.2 20.2 20.2 20.2 20.1 20.1 20.1 20.3 20.4 20.4 20.5 20.5 20.5 20.5 20.5 20.5 20.5 20.5 20.4 20.4 20.4 20.3 20.3 20.3 20.3 20.3 20.2 20.2 20.2 20.2 20.1 20.1 20.1 20.4 20.5 20.5 20.6 20.6 20.6 20.6 20.6 20.7 20.6 20.6 20.5 20.4 20.4 20.4 20.4 20.3 20.3 20.3 20.3 20.2 20.2 20.2 20.2 20.1 20.1 20.5 20.5 20.6 20.7 20.7 20.7 20.7 20.8 20.8 20.7 20.6 20.6 20.5 20.5 20.5 20.4 20.4 20.4 20.3 20.3 20.3 20.2 20.2 20.2 20.1 20.1 20.5 20.6 20.7 20.8 20.8 20.9 20.9 20.9 20.9 20.8 20.7 20.6 20.6 20.6 20.5 20.5 20.4 20.4 20.4 20.3 20.3 20.3 20.2 20.2 20.1 20.1 20.6 20.7 20.8 20.9 21.0 21.0 21.1 21.1 21.0 21.0 20.8 20.8 20.7 20.6 20.6 20.6 20.5 20.5 20.4 20.4 20.3 20.3 20.3 20.2 20.1 20.1 20.7 20.8 21.0 21.1 21.2 21.2 21.3 21.3 21.2 21.1 21.0 20.9 20.8 20.8 20.7 20.6 20.6 20.5 20.5 20.4 20.4 20.3 20.3 20.2 20.1 20.1 20.8 21.0 21.1 21.3 21.4 21.5 21.6 21.5 21.4 21.3 21.1 21.0 20.9 20.9 20.8 20.7 20.6 20.6 20.5 20.5 20.4 20.4 20.3 20.2 20.1 20.1 21.0 21.1 21.3 21.5 21.7 21.8 21.9 21.9 21.7 21.5 21.3 21.2 21.1 21.0 20.9 20.8 20.7 20.6 20.6 20.5 20.5 20.4 20.3 20.2 20.1 20.1 21.1 21.3 21.5 21.8 22.0 22.2 22.3 22.2 22.0 21.8 21.6 21.4 21.3 21.2 21.0 20.9 20.8 20.7 20.6 20.6 20.5 20.4 20.4 20.2 20.1 20.0 21.3 21.6 21.8 22.1 22.4 22.7 22.8 22.6 22.3 22.1 21.8 21.6 21.5 21.3 21.2 21.0 20.9 20.8 20.7 20.6 20.6 20.5 20.4 20.2 20.1 20.0 21.5 21.8 22.1 22.5 22.9 23.2 23.5 23.3 22.8 22.4 22.2 21.9 21.7 21.5 21.3 21.2 21.0 20.9 20.8 20.7 20.6 20.5 20.4 20.2 20.1 20.0 21.8 22.1 22.5 23.0 23.4 23.9 24.3 24.0 23.4 22.9 22.5 22.2 22.0 21.7 21.5 21.3 21.1 21.0 20.8 20.7 20.6 20.5 20.4 20.2 20.1 20.0 22.1 22.5 23.0 23.6 24.2 25.1 27.4 26.8 24.2 23.4 23.0 22.6 22.3 22.0 21.7 21.5 21.2 21.1 20.9 20.8 20.7 20.6 20.4 20.3 20.1 20.0 22.4 22.9 23.5 24.3 25.7 30.1 40.9 38.5 26.6 24.2 23.5 23.0 22.6 22.2 21.9 21.6 21.4 21.2 21.0 20.9 20.8 20.6 20.5 20.3 20.1 20.1 22.8 23.4 24.3 26.0 28.3 37.9 53.4 46.9 29.9 25.4 24.1 23.5 22.9 22.5 22.1 21.8 21.6 21.3 21.2 21.0 20.9 20.7 20.5 20.3 20.1 20.1 23.4 24.1 26.0 30.3 33.9 44.3 75.1 69.8 35.7 26.9 25.1 24.1 23.4 22.9 22.4 22.1 21.8 21.5 21.3 21.1 21.0 20.8 20.5 20.3 20.1 20.1 24.3 25.2 27.2 33.2 53.0 84.2 176.9 162.0 64.0 32.9 26.4 25.1 24.1 23.4 22.8 22.4 22.0 21.7 21.4 21.2 21.0 20.8 20.5 20.3 20.1 20.1 25.2 26.3 28.6 37.2 87.5 239.0 379.5 212.3 66.5 35.2 27.2 25.7 24.6 23.8 23.1 22.6 22.1 21.7 21.4 21.2 20.9 20.7 20.5 20.3 20.1 20.1 25.0 26.5 30.6 41.3 109.1 335.0 366.1 129.6 40.4 30.0 26.6 25.4 24.5 23.6 23.0 22.5 22.1 21.7 21.4 21.2 21.0 20.7 20.5 20.3 20.1 20.1 24.0 25.4 29.5 36.8 71.0 145.1 130.7 55.6 31.7 27.1 25.5 24.4 23.8 23.1 22.6 22.3 21.9 21.6 21.4 21.2 21.0 20.8 20.5 20.3 20.1 20.1 23.2 24.1 26.3 29.3 32.6 35.7 33.8 29.1 26.6 25.4 24.5 23.6 23.1 22.6 22.2 21.9 21.7 21.4 21.3 21.1 20.9 20.8 20.5 20.3 20.1 20.1 22.2 23.4 24.3 25.5 26.9 27.8 27.3 26.0 25.1 24.3 23.7 23.1 22.6 22.2 21.9 21.6 21.4 21.2 21.1 20.9 20.8 20.7 20.5 20.3 20.1 20.1 20.0 20.0 20.0 20.0 20.0 20.0 20.0 20.0 20.0 20.0 20.0 20.0 20.0 20.0 20.0 20.0 20.0 20.1 20.1 20.1 20.1 20.1 20.1 20.1 20.1 20.1 20.1 20.1 20.1 20.1 20.1 20.1 20.1 20.1 20.1 20.1 20.1 20.1 20.1 20.1 20.1 20.1 20.1 20.1 20.1 20.1 20.1 20.1 20.1 20.1 20.1 20.1 20.2 20.2 20.2 20.2 20.2 20.2 20.2 20.2 20.2 20.2 20.2 20.2 20.2 20.2 20.2 20.2 20.2 20.2 20.1 20.1 20.1 20.1 20.1 20.1 20.1 20.1 20.2 20.3 20.3 20.3 20.3 20.3 20.3 20.3 20.4 20.4 20.3 20.3 20.3 20.2 20.2 20.2 20.2 20.2 20.2 20.2 20.1 20.1 20.1 20.1 20.1 20.1 20.3 20.3 20.4 20.4 20.5 20.5 20.5 20.5 20.5 20.5 20.4 20.4 20.3 20.3 20.3 20.3 20.2 20.2 20.2 20.2 20.2 20.1 20.1 20.1 20.1 20.1 20.4 20.4 20.5 20.5 20.6 20.6 20.6 20.6 20.6 20.6 20.5 20.4 20.4 20.4 20.3 20.3 20.3 20.3 20.2 20.2 20.2 20.2 20.1 20.1 20.1 20.1 20.4 20.5 20.6 20.6 20.7 20.7 20.7 20.7 20.7 20.7 20.6 20.5 20.5 20.4 20.4 20.4 20.3 20.3 20.3 20.2 20.2 20.2 20.2 20.1 20.1 20.1 20.5 20.6 20.7 20.7 20.8 20.8 20.9 20.9 20.9 20.8 20.7 20.6 20.5 20.5 20.5 20.4 20.4 20.3 20.3 20.3 20.2 20.2 20.2 20.2 20.1 20.1 20.6 20.7 20.8 20.9 21.0 21.0 21.1 21.1 21.0 20.9 20.8 20.7 20.6 20.6 20.5 20.5 20.4 20.4 20.3 20.3 20.3 20.2 20.2 20.2 20.1 20.1 20.7 20.8 20.9 21.1 21.2 21.3 21.3 21.3 21.2 21.1 21.0 20.8 20.8 20.7 20.6 20.6 20.5 20.4 20.4 20.3 20.3 20.3 20.2 20.2 20.1 20.1 20.8 21.0 21.1 21.3 21.4 21.6 21.6 21.6 21.5 21.3 21.1 21.0 20.9 20.8 20.7 20.7 20.6 20.5 20.5 20.4 20.3 20.3 20.3 20.2 20.1 20.1 21.0 21.2 21.3 21.5 21.8 21.9 22.0 22.0 21.8 21.5 21.3 21.2 21.1 21.0 20.9 20.8 20.7 20.6 20.5 20.4 20.4 20.3 20.3 20.2 20.1 20.0 21.2 21.4 21.6 21.9 22.1 22.4 22.5 22.4 22.1 21.8 21.6 21.4 21.3 21.1 21.0 20.9 20.8 20.7 20.6 20.5 20.4 20.4 20.3 20.2 20.1 20.0 21.4 21.6 21.9 22.3 22.6 23.0 23.1 23.0 22.6 22.2 21.9 21.7 21.5 21.3 21.2 21.0 20.9 20.8 20.7 20.6 20.5 20.4 20.3 20.2 20.1 20.0 21.6 22.0 22.4 22.8 23.3 23.7 24.0 23.8 23.1 22.7 22.3 22.0 21.8 21.6 21.3 21.2 21.0 20.9 20.7 20.6 20.5 20.4 20.3 20.2 20.1 20.0 21.9 22.3 22.8 23.4 24.0 24.6 25.2 24.9 23.9 23.3 22.8 22.4 22.1 21.8 21.5 21.3 21.1 20.9 20.8 20.7 20.6 20.5 20.4 20.2 20.1 20.0 22.3 22.8 23.6 24.3 25.1 27.2 34.4 33.2 25.5 24.0 23.4 22.9 22.5 22.1 21.8 21.5 21.2 21.0 20.9 20.7 20.6 20.5 20.4 20.2 20.1 20.0 22.7 23.5 24.6 26.2 28.4 42.4 75.3 71.9 37.5 25.6 24.1 23.4 22.8 22.4 22.0 21.7 21.4 21.2 21.0 20.8 20.7 20.6 20.4 20.3 20.1 20.0 23.1 24.1 25.7 29.4 34.2 67.6 119.4 116.7 67.7 34.0 25.3 24.1 23.3 22.8 22.3 21.9 21.6 21.3 21.1 21.0 20.8 20.7 20.5 20.3 20.1 20.1 23.8 24.8 28.1 35.9 46.0 82.0 153.5 160.4 88.1 38.7 26.6 24.8 23.9 23.2 22.7 22.2 21.9 21.6 21.3 21.1 20.9 20.7 20.5 20.3 20.1 20.1 25.0 26.5 30.1 44.1 98.5 167.0 284.3 300.9 142.9 44.7 27.8 25.9 24.8 23.9 23.1 22.6 22.1 21.7 21.4 21.2 21.0 20.7 20.5 20.3 20.1 20.1 26.1 28.6 32.8 53.2 163.4 313.3 420.1 350.3 145.4 44.7 28.6 26.7 25.4 24.3 23.5 22.8 22.3 21.8 21.5 21.2 20.9 20.7 20.5 20.3 20.1 20.0 25.8 28.9 38.2 64.2 180.8 371.3 401.5 221.0 70.5 33.1 27.8 26.3 25.1 24.1 23.4 22.7 22.2 21.8 21.5 21.2 20.9 20.7 20.5 20.3 20.1 20.0 24.7 28.2 38.9 60.3 124.5 237.7 222.3 96.1 38.8 28.4 26.3 25.1 24.3 23.5 22.9 22.4 22.0 21.7 21.4 21.2 21.0 20.7 20.5 20.3 20.1 20.1 23.7 27.0 32.7 42.0 53.8 71.9 60.8 34.1 29.1 26.3 25.1 24.2 23.5 22.9 22.4 22.1 21.7 21.5 21.2 21.1 20.9 20.7 20.5 20.3 20.1 20.1 22.5 24.8 26.5 29.8 31.7 31.0 29.9 27.9 26.5 25.1 24.3 23.6 23.0 22.5 22.1 21.7 21.5 21.2 21.0 20.9 20.8 20.6 20.5 20.3 20.1 20.0 20.0 20.0 20.0 20.0 20.0 20.0 20.0 20.0 20.0 20.0 20.0 20.0 20.0 20.0 20.0 20.0 20.0 20.1 20.1 20.1 20.1 20.1 20.1 20.1 20.1 20.0 20.1 20.1 20.1 20.1 20.1 20.1 20.1 20.1 20.1 20.1 20.1 20.1 20.1 20.1 20.1 20.1 20.1 20.1 20.1 20.1 20.1 20.1 20.1 20.1 20.1 20.1 20.2 20.2 20.2 20.2 20.2 20.2 20.2 20.2 20.2 20.2 20.2 20.2 20.2 20.2 20.2 20.2 20.2 20.1 20.1 20.1 20.1 20.1 20.1 20.1 20.1 20.1 20.2 20.3 20.3 20.3 20.3 20.3 20.3 20.4 20.4 20.4 20.3 20.3 20.3 20.2 20.2 20.2 20.2 20.2 20.2 20.2 20.1 20.1 20.1 20.1 20.1 20.1 20.3 20.4 20.4 20.4 20.5 20.5 20.5 20.5 20.5 20.5 20.4 20.4 20.3 20.3 20.3 20.3 20.2 20.2 20.2 20.2 20.2 20.1 20.1 20.1 20.1 20.1 20.4 20.4 20.5 20.5 20.6 20.6 20.6 20.6 20.6 20.6 20.5 20.4 20.4 20.4 20.3 20.3 20.3 20.3 20.2 20.2 20.2 20.2 20.1 20.1 20.1 20.1 20.4 20.5 20.6 20.6 20.7 20.7 20.7 20.7 20.7 20.7 20.6 20.5 20.5 20.4 20.4 20.4 20.3 20.3 20.3 20.2 20.2 20.2 20.2 20.1 20.1 20.1 20.5 20.6 20.7 20.8 20.8 20.8 20.9 20.9 20.9 20.8 20.7 20.6 20.5 20.5 20.5 20.4 20.4 20.3 20.3 20.3 20.2 20.2 20.2 20.1 20.1 20.1 20.6 20.7 20.8 20.9 21.0 21.0 21.1 21.1 21.1 20.9 20.8 20.7 20.6 20.6 20.5 20.5 20.4 20.4 20.3 20.3 20.3 20.2 20.2 20.2 20.1 20.1 20.7 20.8 21.0 21.1 21.2 21.3 21.4 21.4 21.3 21.1 21.0 20.8 20.8 20.7 20.6 20.6 20.5 20.4 20.4 20.3 20.3 20.3 20.2 20.2 20.1 20.1 20.8 21.0 21.1 21.3 21.4 21.6 21.7 21.7 21.5 21.3 21.1 21.0 20.9 20.8 20.7 20.7 20.6 20.5 20.4 20.4 20.3 20.3 20.3 20.2 20.1 20.1 21.0 21.2 21.4 21.6 21.8 22.0 22.1 22.0 21.8 21.6 21.4 21.2 21.1 21.0 20.9 20.8 20.7 20.6 20.5 20.4 20.4 20.3 20.3 20.2 20.1 20.0 21.2 21.4 21.6 21.9 22.2 22.4 22.6 22.5 22.2 21.9 21.6 21.4 21.3 21.2 21.0 20.9 20.8 20.7 20.6 20.5 20.4 20.4 20.3 20.2 20.1 20.0 21.4 21.6 22.0 22.3 22.7 23.0 23.3 23.1 22.7 22.3 22.0 21.7 21.5 21.4 21.2 21.0 20.9 20.8 20.7 20.6 20.5 20.4 20.3 20.2 20.1 20.0 21.6 22.0 22.4 22.9 23.3 23.8 24.2 23.9 23.3 22.8 22.4 22.1 21.8 21.6 21.4 21.2 21.0 20.9 20.7 20.6 20.5 20.4 20.3 20.2 20.1 20.0 21.9 22.4 23.0 23.5 24.1 24.8 25.5 25.2 24.2 23.4 22.9 22.5 22.2 21.9 21.6 21.4 21.1 21.0 20.8 20.7 20.6 20.5 20.4 20.2 20.1 20.0 22.3 23.3 24.8 25.4 25.7 28.3 34.7 33.1 25.9 24.3 23.6 23.0 22.6 22.2 21.8 21.5 21.3 21.1 20.9 20.7 20.6 20.5 20.4 20.2 20.1 20.0 22.8 24.4 27.8 29.2 29.9 52.9 88.0 78.4 42.8 27.7 24.5 23.7 23.0 22.5 22.1 21.7 21.4 21.2 21.0 20.8 20.7 20.6 20.4 20.3 20.1 20.0 23.4 26.1 30.9 33.6 37.3 111.7 196.8 184.8 116.2 51.6 27.0 24.4 23.6 22.9 22.4 22.0 21.7 21.4 21.2 21.0 20.8 20.7 20.5 20.3 20.1 20.1 24.6 27.2 33.4 41.2 53.4 166.2 295.5 290.5 181.8 67.9 29.3 25.3 24.3 23.5 22.9 22.3 21.9 21.6 21.3 21.1 20.9 20.7 20.5 20.3 20.1 20.1 26.8 30.0 39.0 68.7 140.3 277.0 401.1 396.7 229.4 67.3 29.7 26.5 25.3 24.2 23.4 22.7 22.2 21.8 21.5 21.2 21.0 20.8 20.5 20.3 20.1 20.1 29.0 35.8 51.6 107.4 244.6 397.1 468.4 402.7 204.0 57.0 29.7 27.3 26.0 24.7 23.7 23.0 22.4 21.9 21.5 21.2 21.0 20.7 20.5 20.3 20.1 20.0 28.3 39.5 69.1 132.7 251.0 379.5 406.7 265.3 97.3 37.5 29.1 27.1 25.7 24.6 23.7 23.0 22.4 21.9 21.5 21.2 21.0 20.7 20.5 20.3 20.1 20.0 26.2 40.5 72.8 114.1 168.4 249.5 239.1 118.7 44.9 30.3 27.3 25.9 24.7 23.9 23.2 22.6 22.2 21.8 21.4 21.2 21.0 20.8 20.5 20.3 20.1 20.1 24.6 33.7 50.5 65.9 79.8 108.0 86.9 39.4 31.1 27.1 25.6 24.6 23.8 23.2 22.6 22.2 21.8 21.5 21.3 21.1 20.9 20.7 20.5 20.3 20.1 20.1 22.6 25.3 29.5 36.3 40.3 41.1 37.0 30.2 27.4 25.7 24.6 23.8 23.2 22.6 22.2 21.8 21.5 21.3 21.1 20.9 20.8 20.6 20.5 20.3 20.1 20.0 20.0 20.0 20.0 20.0 20.0 20.0 20.0 20.0 20.0 20.1 20.1 20.0 20.0 20.0 20.1 20.1 20.1 20.1 20.1 20.1 20.1 20.1 20.1 20.1 20.1 20.1 20.1 20.1 20.1 20.1 20.1 20.1 20.1 20.1 20.1 20.1 20.1 20.1 20.1 20.1 20.1 20.1 20.1 20.1 20.1 20.1 20.1 20.1 20.1 20.1 20.1 20.1 20.2 20.2 20.2 20.2 20.2 20.2 20.2 20.2 20.3 20.3 20.3 20.2 20.2 20.2 20.2 20.2 20.2 20.2 20.2 20.1 20.1 20.1 20.1 20.1 20.1 20.1 20.3 20.3 20.3 20.4 20.4 20.4 20.4 20.4 20.4 20.4 20.4 20.3 20.3 20.3 20.3 20.3 20.2 20.2 20.2 20.2 20.2 20.1 20.1 20.1 20.1 20.1 20.3 20.4 20.5 20.5 20.5 20.5 20.5 20.5 20.6 20.5 20.5 20.4 20.4 20.3 20.3 20.3 20.3 20.3 20.2 20.2 20.2 20.2 20.1 20.1 20.1 20.1 20.4 20.5 20.5 20.6 20.6 20.6 20.6 20.7 20.7 20.6 20.5 20.5 20.4 20.4 20.4 20.3 20.3 20.3 20.3 20.2 20.2 20.2 20.2 20.1 20.1 20.1 20.5 20.5 20.6 20.7 20.7 20.7 20.7 20.8 20.8 20.7 20.6 20.5 20.5 20.5 20.4 20.4 20.4 20.3 20.3 20.3 20.2 20.2 20.2 20.2 20.1 20.1 20.5 20.6 20.7 20.8 20.8 20.9 20.9 21.0 20.9 20.8 20.7 20.6 20.6 20.5 20.5 20.5 20.4 20.4 20.3 20.3 20.3 20.2 20.2 20.2 20.1 20.1 20.6 20.7 20.8 20.9 21.0 21.0 21.1 21.2 21.1 21.0 20.8 20.7 20.7 20.6 20.6 20.5 20.5 20.4 20.4 20.3 20.3 20.3 20.2 20.2 20.1 20.1 20.7 20.9 21.0 21.1 21.2 21.3 21.4 21.4 21.3 21.1 21.0 20.9 20.8 20.7 20.7 20.6 20.6 20.5 20.4 20.4 20.3 20.3 20.3 20.2 20.1 20.1 20.8 21.0 21.2 21.3 21.4 21.5 21.7 21.7 21.5 21.3 21.2 21.0 21.0 20.9 20.8 20.7 20.6 20.6 20.5 20.4 20.4 20.3 20.3 20.2 20.1 20.1 21.0 21.2 21.4 21.6 21.7 21.9 22.0 22.1 21.8 21.6 21.4 21.2 21.1 21.0 20.9 20.8 20.7 20.6 20.6 20.5 20.4 20.4 20.3 20.2 20.1 20.1 21.1 21.4 21.6 21.8 22.0 22.3 22.5 22.5 22.2 21.9 21.6 21.5 21.3 21.2 21.1 20.9 20.8 20.7 20.6 20.6 20.5 20.4 20.4 20.2 20.1 20.1 21.3 21.6 21.9 22.2 22.5 22.8 23.1 23.1 22.7 22.2 22.0 21.7 21.6 21.4 21.2 21.1 20.9 20.8 20.7 20.6 20.5 20.5 20.4 20.3 20.1 20.1 21.5 21.9 22.3 22.6 23.0 23.5 23.9 23.8 23.2 22.7 22.3 22.1 21.8 21.6 21.4 21.2 21.1 20.9 20.8 20.7 20.6 20.5 20.4 20.3 20.1 20.1 21.9 22.9 23.4 23.3 23.7 24.3 25.1 25.0 24.1 23.3 22.8 22.5 22.2 21.9 21.6 21.4 21.2 21.0 20.9 20.7 20.6 20.5 20.4 20.3 20.1 20.1 23.0 25.2 26.5 25.6 25.7 27.6 29.1 27.7 25.3 24.2 23.5 23.0 22.6 22.2 21.9 21.6 21.3 21.1 21.0 20.8 20.7 20.6 20.4 20.3 20.1 20.1 24.0 27.4 30.9 29.9 28.0 43.3 58.6 50.7 37.0 28.1 24.3 23.6 23.0 22.5 22.1 21.8 21.5 21.3 21.1 20.9 20.8 20.6 20.5 20.3 20.1 20.1 24.7 30.4 36.4 34.9 31.2 104.1 177.8 170.3 126.0 59.6 27.4 24.3 23.6 22.9 22.4 22.0 21.7 21.4 21.2 21.0 20.9 20.7 20.6 20.3 20.1 20.1 28.8 35.0 43.0 45.5 43.0 188.4 335.9 324.6 231.6 92.5 30.4 25.4 24.3 23.5 22.9 22.4 22.0 21.7 21.4 21.2 21.0 20.8 20.6 20.4 20.2 20.1 33.2 43.7 64.3 96.8 110.7 261.3 418.1 399.7 261.4 88.0 31.0 26.8 25.4 24.3 23.4 22.8 22.3 21.8 21.5 21.2 21.0 20.8 20.6 20.3 20.1 20.1 36.5 61.2 104.1 170.0 195.0 278.6 378.6 337.2 194.0 62.6 30.9 27.8 26.2 24.9 23.9 23.1 22.4 21.9 21.6 21.3 21.0 20.8 20.6 20.3 20.1 20.1 34.4 69.8 132.1 202.1 205.7 217.7 262.4 196.4 90.4 41.2 30.1 27.5 26.0 24.8 23.8 23.1 22.4 21.9 21.6 21.3 21.0 20.8 20.6 20.3 20.1 20.1 28.4 57.4 109.2 152.2 150.2 152.6 150.0 90.8 45.6 32.2 28.0 26.2 24.9 24.0 23.3 22.7 22.2 21.8 21.5 21.3 21.0 20.8 20.6 20.3 20.1 20.1 25.7 37.1 57.5 73.6 83.7 96.8 74.1 38.4 31.3 27.4 25.7 24.7 23.9 23.2 22.7 22.3 21.9 21.6 21.4 21.2 21.0 20.8 20.6 20.4 20.1 20.1 23.0 25.3 30.1 37.3 44.4 48.0 40.7 30.6 27.1 25.6 24.6 23.8 23.2 22.7 22.2 21.9 21.6 21.3 21.1 21.0 20.8 20.7 20.5 20.3 20.1 20.1 20.0 20.0 20.0 20.0 20.0 20.0 20.0 20.0 20.1 20.1 20.1 20.1 20.1 20.1 20.1 20.1 20.1 20.1 20.1 20.1 20.1 20.1 20.1 20.1 20.1 20.1 20.1 20.1 20.1 20.1 20.1 20.1 20.1 20.1 20.1 20.1 20.1 20.1 20.1 20.1 20.1 20.1 20.1 20.1 20.1 20.1 20.1 20.1 20.1 20.1 20.1 20.1 20.2 20.2 20.2 20.3 20.3 20.2 20.2 20.3 20.3 20.3 20.3 20.3 20.2 20.2 20.2 20.2 20.2 20.2 20.2 20.2 20.2 20.2 20.1 20.1 20.1 20.1 20.3 20.3 20.4 20.4 20.4 20.4 20.4 20.4 20.5 20.5 20.4 20.4 20.3 20.3 20.3 20.3 20.3 20.3 20.2 20.2 20.2 20.2 20.2 20.1 20.1 20.1 20.4 20.4 20.5 20.5 20.5 20.5 20.5 20.6 20.6 20.6 20.5 20.4 20.4 20.4 20.4 20.3 20.3 20.3 20.3 20.2 20.2 20.2 20.2 20.2 20.1 20.1 20.4 20.5 20.6 20.6 20.6 20.6 20.6 20.7 20.7 20.7 20.6 20.5 20.5 20.4 20.4 20.4 20.4 20.3 20.3 20.3 20.3 20.2 20.2 20.2 20.1 20.1 20.5 20.6 20.6 20.7 20.7 20.7 20.7 20.8 20.8 20.8 20.7 20.6 20.5 20.5 20.5 20.4 20.4 20.4 20.3 20.3 20.3 20.3 20.2 20.2 20.1 20.1 20.5 20.6 20.7 20.8 20.8 20.8 20.9 21.0 20.9 20.9 20.7 20.7 20.6 20.6 20.5 20.5 20.5 20.4 20.4 20.4 20.3 20.3 20.3 20.2 20.1 20.1 20.6 20.7 20.8 20.9 21.0 21.0 21.1 21.1 21.1 21.0 20.9 20.8 20.7 20.7 20.6 20.6 20.5 20.5 20.4 20.4 20.4 20.3 20.3 20.2 20.2 20.1 20.7 20.8 21.0 21.1 21.1 21.2 21.3 21.3 21.3 21.1 21.0 20.9 20.8 20.8 20.7 20.7 20.6 20.5 20.5 20.4 20.4 20.4 20.3 20.3 20.2 20.1 20.8 21.0 21.1 21.2 21.3 21.4 21.6 21.6 21.5 21.3 21.1 21.0 20.9 20.9 20.8 20.7 20.7 20.6 20.5 20.5 20.4 20.4 20.3 20.3 20.2 20.1 20.9 21.1 21.3 21.4 21.5 21.7 21.9 21.9 21.8 21.5 21.3 21.2 21.1 21.0 20.9 20.8 20.8 20.7 20.6 20.5 20.5 20.4 20.4 20.3 20.2 20.1 21.1 21.3 21.5 21.7 21.8 22.0 22.3 22.3 22.1 21.8 21.6 21.4 21.3 21.2 21.1 20.9 20.8 20.8 20.7 20.6 20.5 20.5 20.4 20.3 20.2 20.1 21.2 21.5 21.7 22.0 22.1 22.4 22.8 22.8 22.5 22.1 21.8 21.7 21.5 21.4 21.2 21.1 21.0 20.8 20.8 20.7 20.6 20.5 20.4 20.3 20.2 20.1 21.4 21.8 22.1 22.3 22.6 23.0 23.5 23.5 23.0 22.5 22.2 22.0 21.8 21.6 21.4 21.2 21.1 20.9 20.8 20.7 20.6 20.6 20.4 20.3 20.1 20.1 22.1 23.1 23.2 22.9 23.1 23.6 24.5 24.5 23.7 23.0 22.6 22.3 22.1 21.8 21.6 21.4 21.2 21.0 20.9 20.8 20.7 20.6 20.5 20.3 20.1 20.1 25.9 28.2 27.2 25.4 25.2 26.1 26.7 25.9 24.6 23.8 23.2 22.8 22.4 22.1 21.8 21.5 21.3 21.1 21.0 20.8 20.7 20.6 20.5 20.3 20.2 20.1 29.8 34.2 32.8 28.1 25.8 29.3 32.7 33.5 31.3 26.1 23.9 23.3 22.8 22.4 22.0 21.7 21.5 21.3 21.1 20.9 20.8 20.7 20.6 20.4 20.2 20.1 30.9 38.6 39.4 31.2 30.2 61.8 92.6 114.1 99.3 46.8 25.7 24.0 23.3 22.8 22.3 22.0 21.7 21.4 21.2 21.1 20.9 20.8 20.6 20.4 20.2 20.1 38.9 49.2 51.9 40.4 46.1 128.0 210.7 251.2 210.9 88.5 29.0 25.1 24.1 23.3 22.8 22.3 22.0 21.7 21.4 21.2 21.0 20.9 20.7 20.4 20.2 20.1 55.0 75.7 93.3 82.2 86.8 193.2 297.2 324.5 244.2 94.1 31.8 26.9 25.2 24.1 23.3 22.7 22.2 21.8 21.5 21.3 21.1 20.9 20.7 20.4 20.2 20.1 69.5 115.3 158.7 143.7 108.5 166.7 239.9 241.7 163.7 63.7 32.7 28.3 26.1 24.7 23.8 23.0 22.4 21.9 21.6 21.3 21.1 20.9 20.6 20.4 20.2 20.1 58.3 117.7 183.6 167.6 90.8 84.4 119.8 112.8 80.1 46.4 31.9 27.8 25.9 24.6 23.7 22.9 22.4 21.9 21.6 21.3 21.1 20.9 20.6 20.4 20.2 20.1 35.2 69.2 116.3 119.2 81.6 67.4 67.9 57.3 47.3 35.6 28.8 26.2 24.8 23.8 23.2 22.6 22.2 21.8 21.5 21.3 21.1 20.9 20.7 20.4 20.2 20.1 26.9 33.2 44.1 55.1 63.1 63.0 48.3 34.6 30.7 27.2 25.5 24.5 23.7 23.1 22.6 22.2 21.9 21.6 21.4 21.2 21.0 20.9 20.7 20.4 20.2 20.1 23.1 25.4 28.4 32.0 37.3 40.2 35.3 29.1 26.4 25.1 24.2 23.5 23.0 22.5 22.1 21.8 21.6 21.4 21.2 21.0 20.9 20.8 20.6 20.4 20.2 20.1 20.0 20.0 20.0 20.0 20.0 20.0 20.0 20.1 20.1 20.1 20.1 20.1 20.1 20.1 20.1 20.1 20.1 20.1 20.1 20.1 20.1 20.1 20.1 20.1 20.1 20.1 20.1 20.1 20.1 20.1 20.1 20.1 20.1 20.1 20.1 20.2 20.2 20.1 20.1 20.1 20.1 20.2 20.2 20.2 20.2 20.2 20.2 20.1 20.1 20.1 20.1 20.1 20.2 20.2 20.3 20.3 20.3 20.2 20.2 20.3 20.3 20.3 20.3 20.3 20.3 20.3 20.3 20.3 20.3 20.3 20.2 20.2 20.2 20.2 20.2 20.2 20.1 20.1 20.3 20.4 20.4 20.4 20.4 20.4 20.4 20.4 20.5 20.5 20.5 20.4 20.4 20.3 20.3 20.3 20.3 20.3 20.3 20.2 20.2 20.2 20.2 20.2 20.1 20.1 20.4 20.4 20.5 20.5 20.5 20.5 20.5 20.6 20.6 20.6 20.5 20.5 20.4 20.4 20.4 20.4 20.3 20.3 20.3 20.3 20.3 20.2 20.2 20.2 20.2 20.1 20.4 20.5 20.5 20.6 20.6 20.6 20.6 20.6 20.7 20.7 20.6 20.5 20.5 20.4 20.4 20.4 20.4 20.4 20.3 20.3 20.3 20.3 20.2 20.2 20.2 20.1 20.5 20.5 20.6 20.7 20.7 20.7 20.7 20.7 20.8 20.7 20.6 20.6 20.5 20.5 20.5 20.4 20.4 20.4 20.4 20.3 20.3 20.3 20.3 20.2 20.2 20.1 20.5 20.6 20.7 20.7 20.8 20.8 20.8 20.9 20.9 20.8 20.7 20.6 20.6 20.6 20.5 20.5 20.5 20.4 20.4 20.4 20.3 20.3 20.3 20.3 20.2 20.1 20.6 20.7 20.8 20.8 20.9 20.9 21.0 21.0 21.0 20.9 20.8 20.7 20.7 20.6 20.6 20.6 20.5 20.5 20.4 20.4 20.4 20.3 20.3 20.3 20.2 20.1 20.7 20.8 20.9 21.0 21.0 21.1 21.2 21.2 21.2 21.1 20.9 20.8 20.8 20.7 20.7 20.6 20.6 20.5 20.5 20.4 20.4 20.4 20.3 20.3 20.2 20.1 20.8 20.9 21.0 21.1 21.2 21.3 21.4 21.4 21.3 21.2 21.1 21.0 20.9 20.8 20.8 20.7 20.6 20.6 20.5 20.5 20.5 20.4 20.4 20.3 20.2 20.1 20.8 21.0 21.1 21.2 21.3 21.5 21.6 21.7 21.6 21.4 21.2 21.1 21.0 20.9 20.9 20.8 20.7 20.7 20.6 20.5 20.5 20.5 20.4 20.3 20.2 20.1 21.0 21.2 21.3 21.4 21.5 21.7 22.0 22.0 21.9 21.6 21.4 21.3 21.2 21.1 21.0 20.9 20.8 20.7 20.7 20.6 20.5 20.5 20.4 20.3 20.2 20.1 21.1 21.3 21.5 21.6 21.8 22.0 22.4 22.4 22.2 21.9 21.7 21.5 21.4 21.3 21.1 21.0 20.9 20.8 20.7 20.7 20.6 20.5 20.5 20.3 20.2 20.1 21.3 21.6 21.8 21.9 22.1 22.4 22.9 23.0 22.6 22.2 22.0 21.8 21.6 21.4 21.3 21.1 21.0 20.9 20.8 20.7 20.6 20.6 20.5 20.3 20.2 20.1 22.1 22.6 22.4 22.4 22.5 23.0 23.7 23.8 23.2 22.7 22.3 22.1 21.9 21.6 21.4 21.3 21.1 21.0 20.9 20.8 20.7 20.6 20.5 20.4 20.2 20.1 27.5 28.8 26.7 25.3 24.4 24.4 24.9 24.6 23.9 23.3 22.8 22.5 22.2 21.9 21.6 21.4 21.2 21.1 20.9 20.8 20.7 20.6 20.5 20.4 20.2 20.1 34.0 37.4 32.1 26.5 26.1 26.5 26.5 27.3 26.3 24.2 23.4 22.9 22.5 22.2 21.8 21.6 21.4 21.2 21.0 20.9 20.8 20.7 20.6 20.4 20.2 20.1 42.0 45.0 36.9 27.6 34.3 40.1 42.5 61.2 56.7 31.1 24.3 23.6 23.0 22.5 22.1 21.8 21.6 21.4 21.2 21.0 20.9 20.8 20.7 20.4 20.2 20.1 62.7 63.4 48.8 33.9 53.5 71.3 88.7 150.9 149.3 67.4 27.6 24.8 23.8 23.0 22.5 22.1 21.8 21.6 21.3 21.2 21.0 20.9 20.7 20.5 20.2 20.1 99.3 109.2 85.4 62.2 109.1 152.8 173.6 232.5 206.0 88.6 32.4 26.9 24.8 23.7 23.0 22.4 22.0 21.7 21.4 21.2 21.0 20.9 20.7 20.4 20.2 20.1 126.7 165.6 137.9 91.2 127.2 169.6 182.5 197.9 149.7 68.3 34.8 28.5 25.7 24.3 23.4 22.7 22.2 21.8 21.5 21.2 21.0 20.8 20.6 20.4 20.2 20.1 104.3 158.6 150.8 83.8 70.8 87.2 99.3 107.6 86.0 52.9 33.6 27.9 25.6 24.1 23.4 22.7 22.2 21.8 21.5 21.2 21.0 20.9 20.7 20.4 20.2 20.1 56.3 80.8 90.0 58.7 44.4 47.8 49.4 55.9 52.5 38.9 29.1 26.0 24.6 23.4 22.9 22.4 22.0 21.7 21.4 21.2 21.1 20.9 20.7 20.4 20.2 20.1 30.2 30.4 34.7 37.4 39.3 38.8 34.7 32.7 30.2 26.7 25.1 24.2 23.5 22.8 22.4 22.1 21.8 21.5 21.3 21.2 21.0 20.9 20.7 20.5 20.2 20.1 22.8 24.7 26.6 27.7 29.1 30.5 29.7 27.4 25.4 24.4 23.8 23.2 22.7 22.3 22.0 21.7 21.5 21.3 21.1 21.0 20.9 20.8 20.6 20.4 20.2 20.1 20.0 20.0 20.0 20.0 20.0 20.0 20.0 20.0 20.1 20.1 20.1 20.1 20.1 20.1 20.1 20.1 20.1 20.1 20.2 20.2 20.2 20.2 20.1 20.1 20.1 20.1 20.1 20.1 20.1 20.1 20.1 20.1 20.1 20.1 20.1 20.2 20.2 20.2 20.2 20.2 20.2 20.2 20.2 20.2 20.2 20.2 20.2 20.2 20.2 20.1 20.1 20.1 20.2 20.2 20.2 20.2 20.2 20.2 20.2 20.3 20.3 20.3 20.3 20.3 20.3 20.3 20.3 20.3 20.3 20.3 20.2 20.2 20.2 20.2 20.2 20.2 20.2 20.1 20.3 20.3 20.4 20.4 20.4 20.4 20.4 20.4 20.5 20.5 20.4 20.4 20.3 20.3 20.3 20.3 20.3 20.3 20.3 20.3 20.2 20.2 20.2 20.2 20.2 20.2 20.4 20.4 20.5 20.5 20.5 20.5 20.5 20.5 20.6 20.6 20.5 20.4 20.4 20.4 20.4 20.3 20.3 20.3 20.3 20.3 20.3 20.2 20.2 20.2 20.2 20.2 20.4 20.5 20.5 20.5 20.5 20.5 20.5 20.6 20.6 20.6 20.5 20.5 20.4 20.4 20.4 20.4 20.4 20.3 20.3 20.3 20.3 20.3 20.2 20.2 20.2 20.2 20.4 20.5 20.6 20.6 20.6 20.6 20.6 20.7 20.7 20.7 20.6 20.5 20.5 20.5 20.4 20.4 20.4 20.4 20.3 20.3 20.3 20.3 20.3 20.2 20.2 20.2 20.5 20.6 20.6 20.7 20.7 20.7 20.7 20.8 20.8 20.8 20.7 20.6 20.5 20.5 20.5 20.5 20.4 20.4 20.4 20.4 20.3 20.3 20.3 20.3 20.2 20.2 20.5 20.6 20.7 20.7 20.8 20.8 20.8 20.9 20.9 20.8 20.7 20.7 20.6 20.6 20.5 20.5 20.5 20.4 20.4 20.4 20.4 20.3 20.3 20.3 20.2 20.2 20.6 20.7 20.8 20.8 20.9 20.9 21.0 21.0 21.0 20.9 20.8 20.7 20.7 20.7 20.6 20.6 20.5 20.5 20.5 20.4 20.4 20.4 20.3 20.3 20.2 20.2 20.7 20.8 20.9 20.9 21.0 21.1 21.2 21.2 21.2 21.1 21.0 20.9 20.8 20.7 20.7 20.6 20.6 20.5 20.5 20.5 20.4 20.4 20.4 20.3 20.2 20.1 20.8 20.9 21.0 21.1 21.1 21.3 21.4 21.5 21.4 21.2 21.1 21.0 20.9 20.8 20.8 20.7 20.7 20.6 20.6 20.5 20.5 20.4 20.4 20.3 20.2 20.1 20.9 21.0 21.1 21.2 21.3 21.5 21.7 21.7 21.6 21.4 21.3 21.1 21.1 21.0 20.9 20.8 20.7 20.7 20.6 20.6 20.5 20.5 20.4 20.3 20.2 20.1 21.0 21.1 21.3 21.4 21.5 21.8 22.0 22.1 21.9 21.7 21.5 21.3 21.2 21.1 21.0 20.9 20.8 20.7 20.7 20.6 20.5 20.5 20.4 20.3 20.2 20.1 21.2 21.3 21.4 21.5 21.7 22.1 22.5 22.6 22.3 22.0 21.7 21.6 21.4 21.3 21.1 21.0 20.9 20.8 20.7 20.6 20.6 20.5 20.5 20.3 20.2 20.1 21.6 21.9 21.9 21.8 22.0 22.5 23.0 23.1 22.7 22.3 22.1 21.8 21.6 21.5 21.3 21.1 21.0 20.9 20.8 20.7 20.6 20.6 20.5 20.4 20.2 20.1 25.2 25.4 24.4 23.9 23.3 23.2 23.7 23.6 23.2 22.8 22.5 22.2 21.9 21.7 21.4 21.3 21.1 21.0 20.8 20.7 20.7 20.6 20.5 20.4 20.2 20.1 31.9 30.4 27.5 26.2 26.2 25.0 24.7 24.8 24.2 23.3 22.9 22.6 22.2 21.9 21.6 21.4 21.2 21.1 20.9 20.8 20.7 20.7 20.6 20.4 20.2 20.1 45.1 39.9 36.0 35.2 35.3 29.6 27.5 31.2 30.7 25.3 23.7 23.1 22.6 22.2 21.9 21.6 21.4 21.2 21.1 20.9 20.9 20.8 20.7 20.5 20.2 20.1 77.5 66.7 54.8 51.6 50.2 38.3 39.6 67.4 75.9 46.2 27.6 24.3 23.4 22.6 22.2 21.9 21.6 21.4 21.2 21.1 20.9 20.8 20.7 20.5 20.2 20.1 125.5 119.8 86.2 82.4 95.7 85.7 88.5 131.7 136.2 71.3 35.0 26.5 24.4 23.2 22.6 22.1 21.8 21.5 21.3 21.1 21.0 20.8 20.7 20.4 20.2 20.1 156.7 171.5 116.7 102.8 130.2 127.1 133.1 156.0 134.2 70.5 39.9 28.9 25.1 23.6 23.0 22.4 21.9 21.6 21.3 21.1 20.9 20.8 20.6 20.4 20.2 20.1 130.3 148.2 97.6 67.8 86.6 93.0 108.4 121.7 101.8 62.3 38.1 28.5 25.2 23.5 22.9 22.4 21.9 21.6 21.3 21.1 20.9 20.8 20.6 20.4 20.2 20.1 70.4 71.3 51.6 33.8 39.0 46.0 55.6 67.2 64.4 45.3 30.5 25.6 24.3 23.0 22.5 22.1 21.8 21.5 21.3 21.1 21.0 20.8 20.7 20.4 20.2 20.1 33.7 30.5 31.0 29.8 29.3 30.0 30.4 32.4 31.2 26.9 24.6 23.7 23.1 22.5 22.1 21.8 21.6 21.4 21.2 21.1 20.9 20.8 20.7 20.5 20.2 20.1 23.2 24.4 25.6 26.2 26.3 26.8 27.1 26.3 24.7 23.7 23.2 22.8 22.4 22.0 21.8 21.5 21.3 21.1 21.0 20.9 20.8 20.7 20.6 20.4 20.2 20.1 20.0 20.0 20.0 20.0 20.0 20.0 20.0 20.0 20.1 20.1 20.1 20.1 20.1 20.1 20.1 20.1 20.2 20.2 20.2 20.2 20.2 20.2 20.2 20.1 20.1 20.1 20.1 20.1 20.1 20.1 20.1 20.1 20.1 20.1 20.1 20.1 20.2 20.2 20.2 20.2 20.2 20.2 20.2 20.2 20.2 20.2 20.2 20.2 20.2 20.2 20.1 20.1 20.2 20.2 20.2 20.2 20.2 20.2 20.2 20.2 20.3 20.3 20.3 20.3 20.3 20.3 20.2 20.3 20.2 20.2 20.2 20.2 20.2 20.2 20.2 20.2 20.2 20.2 20.3 20.3 20.3 20.3 20.3 20.3 20.3 20.4 20.4 20.4 20.4 20.4 20.3 20.3 20.3 20.3 20.3 20.3 20.2 20.2 20.2 20.2 20.2 20.2 20.2 20.2 20.3 20.4 20.4 20.4 20.4 20.4 20.4 20.4 20.5 20.5 20.5 20.4 20.3 20.3 20.3 20.3 20.3 20.3 20.3 20.3 20.2 20.2 20.2 20.2 20.2 20.2 20.4 20.4 20.4 20.5 20.5 20.5 20.5 20.5 20.5 20.5 20.5 20.4 20.4 20.4 20.3 20.3 20.3 20.3 20.3 20.3 20.3 20.2 20.2 20.2 20.2 20.2 20.4 20.4 20.5 20.5 20.5 20.5 20.5 20.6 20.6 20.6 20.5 20.5 20.4 20.4 20.4 20.4 20.3 20.3 20.3 20.3 20.3 20.3 20.2 20.2 20.2 20.2 20.4 20.5 20.5 20.6 20.6 20.6 20.6 20.7 20.7 20.7 20.6 20.5 20.5 20.5 20.4 20.4 20.4 20.4 20.3 20.3 20.3 20.3 20.3 20.2 20.2 20.2 20.5 20.6 20.6 20.7 20.7 20.7 20.7 20.8 20.8 20.8 20.7 20.6 20.5 20.5 20.5 20.5 20.4 20.4 20.4 20.3 20.3 20.3 20.3 20.3 20.2 20.2 20.6 20.6 20.7 20.7 20.8 20.8 20.9 20.9 20.9 20.8 20.8 20.7 20.6 20.6 20.5 20.5 20.5 20.4 20.4 20.4 20.3 20.3 20.3 20.3 20.2 20.2 20.6 20.7 20.8 20.8 20.9 20.9 21.0 21.1 21.1 21.0 20.9 20.8 20.7 20.7 20.6 20.6 20.5 20.5 20.4 20.4 20.4 20.4 20.3 20.3 20.2 20.2 20.7 20.8 20.8 20.9 21.0 21.1 21.2 21.3 21.2 21.1 21.0 20.9 20.8 20.8 20.7 20.6 20.6 20.5 20.5 20.4 20.4 20.4 20.4 20.3 20.2 20.1 20.8 20.9 21.0 21.0 21.1 21.3 21.4 21.5 21.4 21.3 21.1 21.0 20.9 20.9 20.8 20.7 20.6 20.6 20.5 20.5 20.4 20.4 20.4 20.3 20.2 20.1 20.9 21.0 21.1 21.2 21.3 21.5 21.7 21.8 21.7 21.5 21.3 21.2 21.1 21.0 20.9 20.8 20.7 20.6 20.6 20.5 20.5 20.4 20.4 20.3 20.2 20.1 21.0 21.1 21.2 21.3