<?xml version="1.0"?>
<VTKFile type="RectilinearGrid" version="1.0" byte_order="LittleEndian" header_type="UInt64">
<RectilinearGrid WholeExtent="25 50 0 25 0 15">
<Piece Extent="25 50 0 25 0 15">
<Coordinates>
<DataArray type="Float64" Name="Array X-Axis" format="ascii" RangeMin="15.0" RangeMax="30.0">
15.0 15.6 16.2 16.8 17.4 18.0 18.6 19.2 19.8 20.4 21.0 21.6 22.2 22.8 23.4 24.0 24.6 25.2 25.8 26.4 27.0 27.6 28.2 28.8 29.4 30.0 
</DataArray>
<DataArray type="Float64" Name="Array Y-Axis" format="ascii" RangeMin="0.0" RangeMax="15.0">
0.0 0.6 1.2 1.8 2.4 3.0 3.6 4.2 4.8 5.4 6.0 6.6 7.2 7.8 8.4 9.0 9.6 10.2 10.8 11.4 12.0 12.6 13.2 13.8 14.4 15.0 
</DataArray>
<DataArray type="Float64" Name="Array Z-Axis" format="ascii" RangeMin="0.0" RangeMax="9.0">
0.0 0.6 1.2 1.8 2.4 3.0 3.6 4.2 4.8 5.4 6.0 6.6 7.2 7.8 8.4 9.0 
</DataArray>
</Coordinates>
<PointData>
<DataArray Name="TEMPERATURE" NumberOfComponents="1" type="Float64" format="ascii">
20.0 20.0 20.0 20.0 20.0 20.0 20.0 20.0 20.0 20.0 20.0 20.0 20.0 20.0 20.0 20.0 20.0 20.0 20.0 20.0 20.0 20.0 20.0 20.0 20.1 20.1 20.1 20.1 20.1 20.1 20.1 20.1 20.1 20.1 20.1 20.1 20.1 20.1 20.1 20.1 20.1 20.1 20.1 20.1 20.1 20.1 20.1 20.1 20.1 20.1 20.1 20.1 20.1 20.1 20.2 20.2 20.2 20.2 20.2 20.2 20.2 20.2 20.2 20.2 20.1 20.1 20.1 20.1 20.1 20.1 20.1 20.1 20.1 20.2 20.2 20.2 20.1 20.0 20.2 20.2 20.2 20.3 20.3 20.2 20.2 20.3 20.3 20.3 20.3 20.2 20.2 20.2 20.2 20.2 20.2 20.2 20.2 20.2 20.2 20.3 20.3 20.2 20.1 20.0 20.3 20.3 20.3 20.4 20.4 20.3 20.3 20.4 20.4 20.4 20.4 20.3 20.3 20.3 20.3 20.3 20.3 20.3 20.3 20.3 20.4 20.4 20.3 20.2 20.1 20.0 20.4 20.4 20.4 20.5 20.5 20.5 20.5 20.5 20.5 20.5 20.5 20.4 20.4 20.4 20.4 20.4 20.4 20.4 20.5 20.5 20.5 20.4 20.3 20.1 20.1 20.0 20.4 20.5 20.5 20.6 20.6 20.6 20.6 20.6 20.7 20.7 20.6 20.5 20.5 20.5 20.5 20.5 20.6 20.6 20.6 20.6 20.5 20.4 20.2 20.1 20.1 20.0 20.5 20.6 20.7 20.7 20.7 20.7 20.7 20.8 20.8 20.8 20.7 20.6 20.6 20.6 20.7 20.7 20.7 20.7 20.7 20.6 20.5 20.3 20.2 20.1 20.1 20.0 20.7 20.7 20.8 20.8 20.9 20.9 20.9 20.9 20.9 20.9 20.8 20.8 20.8 20.8 20.9 20.9 20.9 20.9 20.8 20.6 20.5 20.3 20.2 20.1 20.1 20.0 20.8 20.9 20.9 21.0 21.1 21.1 21.1 21.1 21.1 21.1 21.0 21.0 21.0 21.0 21.1 21.1 21.0 20.9 20.8 20.6 20.5 20.3 20.2 20.2 20.1 20.0 21.0 21.0 21.1 21.2 21.2 21.3 21.3 21.3 21.4 21.3 21.3 21.3 21.3 21.3 21.3 21.2 21.1 21.0 20.8 20.6 20.4 20.3 20.2 20.2 20.1 20.0 21.2 21.2 21.3 21.4 21.5 21.5 21.6 21.6 21.6 21.6 21.6 21.5 21.5 21.5 21.4 21.3 21.2 21.0 20.8 20.6 20.5 20.4 20.3 20.2 20.1 20.0 21.4 21.5 21.6 21.7 21.8 21.9 22.0 21.9 22.0 22.0 21.9 21.8 21.8 21.7 21.6 21.4 21.2 21.0 20.8 20.6 20.5 20.4 20.3 20.2 20.1 20.0 21.7 21.8 21.9 22.0 22.2 22.3 22.4 22.5 22.5 22.3 22.2 22.1 22.0 21.9 21.7 21.4 21.2 20.9 20.8 20.6 20.5 20.4 20.3 20.2 20.1 20.0 21.9 22.1 22.3 22.5 22.7 22.8 22.9 23.0 23.0 22.8 22.6 22.4 22.3 22.0 21.7 21.4 21.2 20.9 20.8 20.6 20.5 20.4 20.3 20.2 20.1 20.0 22.2 22.5 22.7 23.0 23.3 23.6 23.7 23.7 23.6 23.3 23.0 22.8 22.5 22.1 21.8 21.4 21.2 21.0 20.8 20.7 20.5 20.4 20.3 20.2 20.1 20.0 22.6 22.9 23.2 23.6 24.1 24.6 24.8 24.6 24.3 23.9 23.4 23.1 22.6 22.2 21.8 21.5 21.2 21.0 20.9 20.7 20.6 20.4 20.3 20.2 20.1 20.1 22.9 23.3 23.7 24.3 25.1 25.8 25.9 25.7 25.1 24.4 23.9 23.3 22.8 22.3 21.8 21.5 21.3 21.1 20.9 20.8 20.6 20.5 20.4 20.2 20.1 20.1 23.3 23.8 24.4 25.1 26.2 27.4 28.9 28.6 26.4 25.1 24.3 23.6 22.9 22.4 22.0 21.7 21.5 21.2 21.1 20.9 20.7 20.5 20.4 20.3 20.1 20.1 23.8 24.5 25.3 27.1 31.0 36.5 43.7 42.2 31.6 26.0 24.9 24.0 23.2 22.6 22.3 21.9 21.7 21.4 21.2 21.0 20.8 20.6 20.4 20.3 20.1 20.1 24.8 25.7 26.9 30.1 35.0 44.7 56.2 48.1 34.5 27.2 25.7 24.6 23.6 22.9 22.5 22.1 21.8 21.5 21.2 21.0 20.8 20.6 20.4 20.3 20.1 20.1 25.5 26.8 28.5 32.6 35.7 20.0 20.0 36.5 32.7 27.8 26.2 25.0 23.8 23.1 22.7 22.2 21.8 21.5 21.2 21.0 20.8 20.6 20.4 20.3 20.1 20.1 25.4 26.7 29.2 35.0 38.9 20.0 20.0 33.4 30.8 27.3 25.8 24.7 23.8 23.1 22.6 22.1 21.7 21.4 21.2 20.9 20.7 20.6 20.4 20.3 20.2 20.1 25.0 25.9 28.5 34.4 36.9 33.9 34.8 31.9 28.6 26.3 25.0 24.2 23.5 22.9 22.4 22.0 21.7 21.4 21.2 20.9 20.7 20.6 20.4 20.3 20.2 20.1 24.3 24.9 26.3 29.6 31.4 31.3 32.3 30.7 27.1 25.3 24.4 23.6 23.1 22.6 22.2 21.9 21.6 21.4 21.2 20.9 20.7 20.6 20.4 20.3 20.1 20.1 22.8 24.0 24.8 26.0 27.0 27.7 28.5 27.9 25.9 24.7 23.9 23.2 22.7 22.3 21.9 21.7 21.4 21.3 21.1 20.9 20.7 20.6 20.4 20.3 20.1 20.1 20.0 20.0 20.0 20.0 20.0 20.0 20.0 20.0 20.0 20.0 20.0 20.0 20.0 20.0 20.0 20.0 20.0 20.0 20.0 20.0 20.0 20.0 20.0 20.0 20.1 20.1 20.1 20.1 20.1 20.1 20.1 20.1 20.1 20.1 20.1 20.1 20.1 20.1 20.1 20.1 20.1 20.1 20.1 20.1 20.1 20.1 20.1 20.1 20.1 20.1 20.1 20.1 20.1 20.1 20.1 20.1 20.1 20.1 20.1 20.1 20.2 20.2 20.2 20.1 20.1 20.1 20.1 20.1 20.1 20.1 20.1 20.1 20.1 20.2 20.2 20.2 20.1 20.0 20.2 20.2 20.2 20.2 20.2 20.2 20.2 20.2 20.3 20.3 20.3 20.2 20.2 20.2 20.2 20.2 20.2 20.2 20.2 20.2 20.2 20.3 20.3 20.2 20.1 20.0 20.3 20.3 20.3 20.3 20.3 20.3 20.3 20.4 20.4 20.4 20.3 20.3 20.3 20.3 20.3 20.3 20.3 20.3 20.3 20.3 20.4 20.4 20.3 20.2 20.1 20.0 20.3 20.4 20.4 20.4 20.5 20.4 20.4 20.5 20.5 20.5 20.4 20.4 20.4 20.4 20.4 20.4 20.4 20.4 20.4 20.5 20.5 20.4 20.3 20.1 20.1 20.0 20.4 20.5 20.5 20.6 20.6 20.6 20.6 20.6 20.6 20.6 20.6 20.5 20.5 20.5 20.5 20.5 20.6 20.6 20.6 20.6 20.5 20.4 20.2 20.1 20.1 20.0 20.5 20.6 20.6 20.7 20.7 20.7 20.7 20.7 20.8 20.7 20.7 20.6 20.6 20.6 20.7 20.7 20.7 20.7 20.7 20.6 20.5 20.3 20.2 20.1 20.1 20.0 20.6 20.7 20.7 20.8 20.9 20.9 20.9 20.9 20.9 20.9 20.8 20.8 20.8 20.8 20.9 20.9 20.9 20.8 20.7 20.6 20.5 20.3 20.2 20.1 20.1 20.0 20.8 20.8 20.9 21.0 21.0 21.1 21.1 21.1 21.1 21.1 21.0 21.0 21.0 21.0 21.1 21.0 21.0 20.9 20.8 20.6 20.4 20.3 20.2 20.1 20.1 20.0 21.0 21.0 21.1 21.2 21.2 21.3 21.3 21.4 21.4 21.3 21.3 21.3 21.3 21.3 21.2 21.2 21.1 20.9 20.8 20.6 20.4 20.3 20.2 20.1 20.1 20.0 21.2 21.3 21.3 21.4 21.5 21.6 21.6 21.7 21.7 21.6 21.6 21.6 21.5 21.5 21.4 21.3 21.1 20.9 20.7 20.6 20.4 20.3 20.2 20.2 20.1 20.0 21.4 21.5 21.6 21.7 21.9 22.0 22.1 22.1 22.1 22.0 21.9 21.8 21.8 21.7 21.5 21.4 21.2 20.9 20.7 20.6 20.4 20.3 20.3 20.2 20.1 20.0 21.7 21.8 22.0 22.1 22.3 22.4 22.6 22.6 22.5 22.4 22.3 22.2 22.0 21.9 21.7 21.4 21.2 20.9 20.7 20.6 20.5 20.4 20.3 20.2 20.1 20.0 22.0 22.2 22.4 22.6 22.8 23.1 23.2 23.2 23.1 22.8 22.7 22.5 22.3 22.0 21.8 21.5 21.2 20.9 20.8 20.6 20.5 20.4 20.3 20.2 20.1 20.0 22.3 22.5 22.8 23.2 23.5 23.9 24.0 24.0 23.8 23.4 23.1 22.8 22.5 22.2 21.8 21.5 21.2 21.0 20.8 20.6 20.5 20.4 20.3 20.2 20.1 20.0 22.6 23.0 23.4 23.8 24.4 25.0 25.2 25.0 24.5 24.0 23.6 23.2 22.7 22.3 21.9 21.5 21.2 21.0 20.8 20.7 20.6 20.4 20.3 20.2 20.1 20.0 23.0 23.5 24.1 24.7 25.6 26.6 27.6 27.0 25.5 24.6 24.0 23.5 22.9 22.4 21.9 21.6 21.3 21.1 20.9 20.8 20.6 20.5 20.3 20.2 20.1 20.1 23.5 24.1 24.9 26.4 28.5 30.3 33.3 32.5 27.7 25.5 24.6 23.8 23.1 22.5 22.1 21.7 21.5 21.2 21.0 20.9 20.7 20.5 20.4 20.3 20.1 20.1 24.0 24.9 27.5 34.7 57.2 64.8 55.5 46.7 32.5 26.7 25.2 24.2 23.4 22.8 22.3 22.0 21.7 21.4 21.2 20.9 20.8 20.6 20.4 20.3 20.1 20.1 24.9 26.2 31.9 45.4 107.9 204.1 182.1 83.1 36.8 28.4 26.2 25.0 23.9 23.1 22.6 22.2 21.8 21.5 21.2 21.0 20.8 20.6 20.4 20.3 20.1 20.1 25.9 27.5 32.6 46.0 148.6 424.4 374.5 107.1 37.2 29.5 26.8 25.4 24.2 23.4 22.8 22.2 21.8 21.5 21.2 21.0 20.8 20.6 20.4 20.3 20.1 20.1 26.1 27.5 31.2 46.8 171.3 386.0 293.0 95.2 34.3 28.5 26.2 25.1 24.0 23.3 22.7 22.2 21.8 21.5 21.2 20.9 20.7 20.6 20.4 20.3 20.1 20.1 25.3 26.3 30.2 47.0 112.9 149.5 107.7 62.0 31.0 26.9 25.3 24.4 23.7 23.0 22.5 22.1 21.7 21.4 21.2 20.9 20.7 20.6 20.4 20.3 20.1 20.1 24.3 25.1 27.3 35.3 43.7 41.5 37.4 34.6 29.1 25.7 24.6 23.8 23.2 22.7 22.3 21.9 21.6 21.4 21.1 20.9 20.7 20.6 20.4 20.3 20.1 20.1 22.9 24.2 25.0 26.4 27.8 28.7 29.4 29.2 27.0 25.0 24.1 23.4 22.8 22.4 22.0 21.7 21.4 21.2 21.0 20.8 20.7 20.5 20.4 20.3 20.1 20.1 20.0 20.0 20.0 20.0 20.0 20.0 20.0 20.0 20.0 20.0 20.0 20.0 20.0 20.0 20.0 20.0 20.0 20.0 20.0 20.0 20.0 20.0 20.0 20.0 20.1 20.1 20.0 20.1 20.1 20.1 20.1 20.1 20.1 20.1 20.1 20.1 20.1 20.1 20.1 20.0 20.0 20.0 20.0 20.0 20.0 20.0 20.0 20.1 20.1 20.1 20.1 20.1 20.1 20.1 20.1 20.1 20.1 20.1 20.1 20.1 20.1 20.1 20.1 20.1 20.1 20.1 20.1 20.1 20.1 20.1 20.1 20.1 20.1 20.1 20.2 20.2 20.1 20.0 20.2 20.2 20.2 20.2 20.2 20.2 20.2 20.2 20.2 20.2 20.2 20.2 20.2 20.2 20.2 20.2 20.2 20.2 20.2 20.2 20.2 20.2 20.2 20.2 20.1 20.0 20.2 20.3 20.3 20.3 20.3 20.3 20.3 20.3 20.3 20.3 20.3 20.3 20.3 20.2 20.2 20.2 20.3 20.3 20.3 20.3 20.3 20.3 20.3 20.1 20.1 20.0 20.3 20.3 20.4 20.4 20.4 20.4 20.4 20.4 20.5 20.4 20.4 20.4 20.3 20.3 20.3 20.4 20.4 20.4 20.4 20.4 20.4 20.3 20.2 20.1 20.0 20.0 20.4 20.4 20.5 20.5 20.5 20.5 20.6 20.6 20.6 20.6 20.5 20.5 20.4 20.5 20.5 20.5 20.5 20.5 20.5 20.5 20.4 20.3 20.2 20.1 20.0 20.0 20.5 20.5 20.6 20.6 20.7 20.7 20.7 20.7 20.7 20.7 20.6 20.6 20.6 20.6 20.6 20.7 20.7 20.6 20.6 20.5 20.4 20.3 20.2 20.1 20.0 20.0 20.6 20.6 20.7 20.8 20.9 20.9 20.9 20.9 20.9 20.9 20.8 20.8 20.8 20.8 20.8 20.8 20.8 20.7 20.7 20.5 20.4 20.3 20.2 20.1 20.1 20.0 20.8 20.8 20.9 21.0 21.0 21.1 21.1 21.1 21.1 21.1 21.1 21.0 21.0 21.0 21.0 21.0 20.9 20.8 20.7 20.5 20.4 20.3 20.2 20.1 20.1 20.0 21.0 21.0 21.1 21.2 21.3 21.4 21.4 21.4 21.4 21.4 21.3 21.3 21.3 21.2 21.2 21.1 21.0 20.9 20.7 20.5 20.4 20.3 20.2 20.1 20.1 20.0 21.2 21.3 21.4 21.5 21.7 21.7 21.8 21.8 21.8 21.7 21.6 21.6 21.5 21.4 21.3 21.2 21.1 20.9 20.7 20.5 20.4 20.3 20.2 20.1 20.1 20.0 21.4 21.6 21.7 21.9 22.0 22.2 22.3 22.3 22.2 22.1 22.0 21.9 21.8 21.6 21.5 21.3 21.1 20.9 20.7 20.6 20.4 20.3 20.2 20.1 20.1 20.0 21.7 21.9 22.1 22.3 22.5 22.7 22.9 22.9 22.7 22.5 22.3 22.2 22.0 21.8 21.6 21.4 21.2 21.0 20.7 20.6 20.4 20.3 20.2 20.2 20.1 20.0 22.0 22.3 22.5 22.8 23.2 23.5 23.7 23.6 23.3 23.0 22.8 22.5 22.3 22.1 21.8 21.5 21.2 21.0 20.8 20.6 20.5 20.3 20.3 20.2 20.1 20.0 22.4 22.7 23.0 23.5 24.0 24.4 24.7 24.6 24.1 23.6 23.2 22.9 22.6 22.3 21.9 21.6 21.3 21.0 20.8 20.6 20.5 20.4 20.3 20.2 20.1 20.0 22.8 23.2 23.7 24.2 25.0 26.0 26.5 25.9 24.9 24.3 23.8 23.3 22.9 22.4 22.0 21.6 21.3 21.0 20.8 20.6 20.5 20.4 20.3 20.2 20.1 20.0 23.2 23.8 24.7 26.0 27.0 29.8 35.8 33.9 27.1 25.1 24.4 23.7 23.2 22.6 22.1 21.7 21.3 21.1 20.9 20.7 20.6 20.4 20.3 20.2 20.1 20.0 23.8 24.8 26.7 32.1 35.1 42.4 59.4 61.5 44.8 30.2 25.2 24.2 23.4 22.8 22.2 21.8 21.5 21.2 21.0 20.8 20.7 20.5 20.4 20.2 20.1 20.1 24.4 26.0 30.9 51.2 84.3 98.5 100.1 90.6 58.7 33.4 26.1 24.8 23.8 23.1 22.5 22.1 21.7 21.4 21.1 20.9 20.7 20.5 20.4 20.2 20.1 20.1 25.5 28.1 40.1 87.8 189.9 286.3 275.6 170.7 76.6 36.6 27.4 25.6 24.4 23.5 22.8 22.3 21.9 21.5 21.2 21.0 20.8 20.5 20.4 20.2 20.1 20.1 26.8 29.9 43.4 95.4 246.7 412.8 392.8 233.0 99.6 39.8 28.1 26.1 24.8 23.8 23.0 22.4 21.9 21.6 21.2 21.0 20.7 20.5 20.4 20.2 20.1 20.1 27.0 29.2 37.0 74.5 228.8 331.5 294.2 193.3 74.9 34.4 27.4 25.8 24.6 23.7 22.9 22.3 21.9 21.5 21.2 20.9 20.7 20.5 20.4 20.2 20.1 20.1 25.8 27.2 32.2 58.9 143.2 164.4 149.9 113.3 40.7 29.0 26.3 25.1 24.1 23.3 22.7 22.2 21.8 21.5 21.2 20.9 20.7 20.5 20.4 20.2 20.1 20.1 24.7 25.6 28.3 39.0 50.1 48.4 52.3 48.4 32.0 26.9 25.4 24.3 23.6 22.9 22.4 22.0 21.6 21.4 21.1 20.9 20.7 20.5 20.4 20.2 20.1 20.1 23.1 24.7 25.6 27.2 29.4 30.7 31.1 30.4 27.9 25.7 24.7 23.8 23.2 22.6 22.1 21.7 21.4 21.2 21.0 20.8 20.6 20.5 20.3 20.2 20.1 20.1 20.0 20.0 20.0 20.0 20.0 20.0 20.0 20.0 20.0 20.0 20.0 20.0 20.0 20.0 20.0 20.0 20.0 20.0 20.0 20.0 20.0 20.0 20.0 20.0 20.0 20.1 20.0 20.1 20.1 20.1 20.1 20.1 20.1 20.1 20.1 20.1 20.1 20.1 20.0 20.0 20.0 20.0 20.0 20.0 20.0 20.0 20.0 20.1 20.1 20.1 20.1 20.1 20.1 20.1 20.1 20.1 20.1 20.1 20.1 20.1 20.1 20.1 20.1 20.1 20.1 20.1 20.1 20.1 20.1 20.1 20.1 20.1 20.1 20.1 20.1 20.1 20.1 20.0 20.2 20.2 20.2 20.2 20.2 20.2 20.2 20.2 20.2 20.2 20.2 20.2 20.2 20.2 20.2 20.2 20.2 20.2 20.2 20.2 20.2 20.2 20.2 20.2 20.1 20.0 20.2 20.3 20.3 20.3 20.3 20.3 20.3 20.3 20.4 20.3 20.3 20.3 20.3 20.2 20.2 20.3 20.3 20.3 20.3 20.3 20.3 20.3 20.2 20.1 20.1 20.0 20.3 20.3 20.4 20.4 20.4 20.4 20.4 20.5 20.5 20.5 20.4 20.4 20.3 20.3 20.4 20.4 20.4 20.4 20.4 20.4 20.4 20.3 20.2 20.1 20.0 20.0 20.4 20.4 20.5 20.5 20.6 20.6 20.6 20.6 20.6 20.6 20.5 20.5 20.5 20.5 20.5 20.5 20.5 20.5 20.5 20.4 20.4 20.3 20.2 20.1 20.0 20.0 20.5 20.5 20.6 20.7 20.7 20.7 20.7 20.8 20.8 20.7 20.7 20.6 20.6 20.6 20.6 20.6 20.6 20.6 20.6 20.5 20.4 20.3 20.2 20.1 20.0 20.0 20.6 20.7 20.8 20.8 20.9 20.9 20.9 21.0 21.0 20.9 20.9 20.8 20.8 20.8 20.8 20.8 20.7 20.7 20.6 20.5 20.4 20.3 20.2 20.1 20.0 20.0 20.8 20.9 20.9 21.0 21.1 21.2 21.2 21.2 21.2 21.2 21.1 21.1 21.0 21.0 21.0 20.9 20.8 20.8 20.6 20.5 20.4 20.3 20.2 20.1 20.1 20.0 21.0 21.1 21.2 21.3 21.4 21.5 21.5 21.6 21.5 21.4 21.4 21.3 21.2 21.2 21.1 21.0 20.9 20.8 20.7 20.5 20.4 20.3 20.2 20.1 20.1 20.0 21.2 21.3 21.4 21.6 21.8 21.9 21.9 22.0 21.9 21.8 21.7 21.6 21.5 21.4 21.3 21.2 21.0 20.9 20.7 20.6 20.4 20.3 20.2 20.1 20.1 20.0 21.5 21.6 21.8 21.9 22.1 22.3 22.5 22.5 22.3 22.2 22.0 21.9 21.7 21.6 21.4 21.3 21.1 20.9 20.8 20.6 20.4 20.3 20.2 20.1 20.1 20.0 21.7 21.9 22.1 22.4 22.6 22.8 23.1 23.1 22.8 22.6 22.4 22.2 22.0 21.8 21.6 21.4 21.2 21.0 20.8 20.6 20.5 20.3 20.2 20.1 20.1 20.0 22.1 22.3 22.6 23.0 23.4 23.7 23.9 23.9 23.5 23.1 22.8 22.6 22.3 22.1 21.8 21.5 21.3 21.0 20.8 20.6 20.5 20.4 20.3 20.2 20.1 20.0 22.4 22.8 23.2 23.6 24.2 24.7 25.1 24.9 24.3 23.8 23.3 23.0 22.7 22.3 22.0 21.6 21.3 21.1 20.8 20.6 20.5 20.4 20.3 20.2 20.1 20.0 22.9 23.4 24.1 24.6 25.4 27.3 28.1 26.7 25.3 24.5 24.0 23.5 23.0 22.5 22.1 21.7 21.4 21.1 20.9 20.7 20.5 20.4 20.3 20.2 20.1 20.0 23.4 24.1 26.0 27.5 27.8 34.7 43.8 38.8 28.7 25.6 24.7 24.0 23.3 22.8 22.3 21.8 21.5 21.2 20.9 20.7 20.6 20.4 20.3 20.2 20.1 20.0 24.2 26.0 30.7 36.0 36.9 69.5 110.2 103.6 64.1 32.3 25.7 24.6 23.7 23.0 22.4 22.0 21.6 21.3 21.1 20.9 20.7 20.5 20.4 20.2 20.1 20.1 25.4 29.0 37.1 55.4 77.1 140.3 199.9 186.4 115.2 45.5 27.0 25.3 24.2 23.4 22.7 22.2 21.8 21.5 21.2 21.0 20.8 20.6 20.4 20.3 20.1 20.1 27.0 35.0 61.4 127.0 215.9 304.4 343.6 295.5 181.8 71.5 30.0 26.2 24.9 23.9 23.0 22.4 22.0 21.6 21.3 21.0 20.8 20.6 20.4 20.3 20.1 20.1 28.5 36.8 73.6 171.7 309.0 399.9 415.1 349.9 200.1 71.8 31.2 26.9 25.4 24.2 23.3 22.6 22.0 21.6 21.3 21.0 20.8 20.6 20.4 20.2 20.1 20.1 28.6 32.5 56.9 130.3 245.6 294.2 304.6 257.1 121.0 44.4 29.4 26.7 25.2 24.0 23.2 22.6 22.0 21.6 21.3 21.0 20.8 20.6 20.4 20.2 20.1 20.1 27.0 29.0 40.2 74.9 127.1 138.6 157.2 133.5 55.9 32.7 27.7 25.8 24.6 23.7 23.0 22.4 21.9 21.5 21.3 21.0 20.8 20.6 20.4 20.2 20.1 20.1 25.2 26.3 29.3 39.8 47.9 49.6 61.1 55.9 35.5 28.6 26.2 24.8 24.0 23.2 22.6 22.1 21.7 21.4 21.2 20.9 20.7 20.5 20.4 20.2 20.1 20.1 23.3 25.1 26.5 29.8 32.6 33.7 33.7 31.7 28.8 26.5 25.2 24.3 23.5 22.9 22.3 21.9 21.5 21.3 21.0 20.8 20.7 20.5 20.4 20.2 20.1 20.1 20.0 20.0 20.0 20.0 20.0 20.0 20.0 20.0 20.0 20.0 20.0 20.0 20.0 20.0 20.0 20.0 20.0 20.0 20.0 20.0 20.0 20.0 20.0 20.0 20.1 20.1 20.1 20.1 20.1 20.1 20.1 20.1 20.1 20.1 20.1 20.1 20.1 20.1 20.1 20.1 20.1 20.1 20.1 20.1 20.1 20.1 20.1 20.1 20.1 20.1 20.1 20.1 20.1 20.1 20.1 20.1 20.1 20.1 20.1 20.1 20.2 20.2 20.2 20.1 20.1 20.1 20.1 20.1 20.1 20.1 20.1 20.1 20.1 20.1 20.2 20.1 20.1 20.0 20.2 20.2 20.2 20.2 20.2 20.2 20.2 20.3 20.3 20.3 20.2 20.2 20.2 20.2 20.2 20.2 20.2 20.2 20.2 20.2 20.2 20.2 20.2 20.2 20.1 20.0 20.3 20.3 20.3 20.4 20.4 20.3 20.3 20.4 20.4 20.4 20.3 20.3 20.3 20.3 20.3 20.3 20.3 20.3 20.3 20.3 20.3 20.3 20.2 20.1 20.1 20.0 20.3 20.4 20.4 20.5 20.5 20.5 20.5 20.5 20.5 20.5 20.5 20.4 20.4 20.4 20.4 20.4 20.4 20.4 20.4 20.4 20.4 20.3 20.2 20.1 20.1 20.0 20.4 20.5 20.6 20.6 20.6 20.6 20.6 20.7 20.7 20.7 20.6 20.6 20.6 20.6 20.6 20.6 20.5 20.5 20.5 20.5 20.4 20.3 20.2 20.1 20.1 20.0 20.6 20.6 20.7 20.8 20.8 20.8 20.8 20.9 20.9 20.8 20.8 20.7 20.7 20.7 20.7 20.7 20.7 20.6 20.6 20.5 20.4 20.3 20.2 20.1 20.1 20.0 20.7 20.8 20.9 20.9 21.0 21.0 21.0 21.1 21.1 21.0 21.0 20.9 20.9 20.9 20.9 20.8 20.8 20.7 20.6 20.5 20.4 20.3 20.2 20.1 20.1 20.0 20.9 21.0 21.1 21.2 21.2 21.3 21.3 21.4 21.4 21.3 21.2 21.2 21.1 21.1 21.0 20.9 20.9 20.8 20.7 20.6 20.4 20.3 20.2 20.1 20.1 20.0 21.1 21.2 21.3 21.4 21.5 21.6 21.6 21.7 21.7 21.6 21.5 21.4 21.3 21.3 21.2 21.1 21.0 20.9 20.7 20.6 20.5 20.3 20.2 20.1 20.1 20.0 21.3 21.4 21.5 21.7 21.8 22.0 22.1 22.1 22.0 21.9 21.8 21.7 21.6 21.4 21.3 21.2 21.1 20.9 20.8 20.6 20.5 20.4 20.2 20.2 20.1 20.0 21.6 21.7 21.9 22.0 22.2 22.3 22.5 22.6 22.4 22.3 22.1 21.9 21.8 21.7 21.5 21.3 21.2 21.0 20.8 20.7 20.5 20.4 20.3 20.2 20.1 20.0 21.8 22.0 22.2 22.4 22.7 22.9 23.1 23.2 23.0 22.7 22.5 22.3 22.1 21.9 21.7 21.5 21.3 21.1 20.9 20.7 20.5 20.4 20.3 20.2 20.1 20.0 22.1 22.4 22.7 23.0 23.3 23.6 23.9 24.0 23.6 23.2 22.9 22.6 22.4 22.1 21.9 21.6 21.4 21.1 20.9 20.7 20.6 20.4 20.3 20.2 20.1 20.0 22.5 23.4 23.8 23.8 24.0 24.5 25.0 24.9 24.4 23.8 23.4 23.1 22.7 22.4 22.1 21.8 21.5 21.2 21.0 20.8 20.6 20.4 20.3 20.2 20.1 20.0 23.0 24.2 25.3 25.3 25.7 27.6 28.2 26.7 25.4 24.6 24.1 23.6 23.1 22.7 22.3 21.9 21.6 21.3 21.0 20.8 20.6 20.5 20.3 20.2 20.1 20.0 23.7 25.5 27.9 28.1 26.7 33.9 40.9 35.3 28.3 25.7 24.8 24.1 23.5 22.9 22.5 22.0 21.6 21.3 21.1 20.9 20.7 20.5 20.4 20.2 20.1 20.1 25.2 30.2 35.2 34.5 30.5 66.5 105.1 93.1 56.9 29.5 25.8 24.8 23.9 23.2 22.7 22.2 21.8 21.5 21.2 21.0 20.8 20.6 20.4 20.3 20.1 20.1 27.8 37.8 49.0 52.2 52.4 139.0 225.0 211.3 137.0 52.6 27.5 25.5 24.5 23.6 22.9 22.4 22.0 21.6 21.3 21.1 20.9 20.7 20.5 20.3 20.1 20.1 33.1 59.0 105.7 151.4 154.7 250.3 361.1 342.6 244.5 101.0 32.3 26.6 25.1 24.1 23.3 22.6 22.2 21.8 21.4 21.1 20.9 20.7 20.4 20.3 20.1 20.1 36.2 65.6 136.1 233.0 240.1 298.4 397.6 355.3 229.5 92.6 33.8 27.4 25.7 24.5 23.5 22.8 22.3 21.8 21.4 21.1 20.9 20.6 20.4 20.3 20.1 20.1 33.0 51.7 108.5 191.7 198.8 225.7 287.0 235.1 122.0 47.0 30.7 27.4 25.7 24.4 23.5 22.8 22.2 21.8 21.4 21.1 20.8 20.6 20.4 20.3 20.1 20.1 28.5 40.3 73.6 110.7 111.4 121.0 145.7 120.5 67.6 35.8 28.8 26.5 25.0 24.0 23.2 22.6 22.1 21.7 21.4 21.1 20.9 20.6 20.4 20.3 20.1 20.1 26.0 30.2 40.8 52.9 53.8 55.0 61.1 58.7 44.6 30.8 26.9 25.3 24.3 23.5 22.8 22.3 21.9 21.6 21.3 21.0 20.8 20.6 20.4 20.3 20.1 20.1 23.8 26.8 29.7 33.5 35.3 35.6 35.8 35.8 32.5 27.1 25.5 24.6 23.8 23.2 22.6 22.1 21.7 21.4 21.2 20.9 20.7 20.6 20.4 20.2 20.1 20.1 20.0 20.0 20.0 20.0 20.0 20.0 20.0 20.0 20.0 20.0 20.0 20.0 20.0 20.0 20.0 20.0 20.0 20.0 20.0 20.0 20.0 20.0 20.0 20.1 20.1 20.1 20.1 20.1 20.1 20.1 20.1 20.1 20.1 20.1 20.1 20.1 20.1 20.1 20.1 20.1 20.1 20.1 20.1 20.1 20.1 20.1 20.1 20.1 20.1 20.1 20.1 20.1 20.1 20.1 20.2 20.2 20.2 20.1 20.1 20.2 20.2 20.2 20.2 20.2 20.1 20.1 20.1 20.1 20.1 20.1 20.1 20.2 20.2 20.2 20.2 20.2 20.1 20.1 20.2 20.2 20.3 20.3 20.3 20.3 20.3 20.3 20.3 20.3 20.3 20.3 20.2 20.2 20.2 20.2 20.3 20.3 20.3 20.3 20.3 20.3 20.3 20.2 20.1 20.0 20.3 20.3 20.4 20.4 20.4 20.4 20.4 20.4 20.4 20.4 20.4 20.4 20.4 20.4 20.4 20.4 20.4 20.4 20.4 20.4 20.4 20.3 20.3 20.2 20.1 20.0 20.4 20.4 20.5 20.5 20.5 20.5 20.5 20.6 20.6 20.6 20.5 20.5 20.5 20.5 20.5 20.5 20.5 20.5 20.5 20.5 20.4 20.4 20.3 20.2 20.1 20.0 20.5 20.5 20.6 20.6 20.6 20.6 20.7 20.7 20.8 20.8 20.7 20.7 20.7 20.7 20.7 20.7 20.6 20.6 20.6 20.5 20.5 20.4 20.3 20.2 20.1 20.0 20.6 20.7 20.8 20.8 20.8 20.8 20.9 20.9 21.0 21.0 20.9 20.9 20.9 20.9 20.8 20.8 20.8 20.7 20.7 20.6 20.5 20.4 20.3 20.2 20.1 20.0 20.8 20.9 21.0 21.0 21.0 21.1 21.1 21.2 21.2 21.2 21.1 21.1 21.1 21.0 21.0 20.9 20.9 20.8 20.7 20.6 20.5 20.4 20.3 20.2 20.1 20.0 21.0 21.1 21.2 21.2 21.3 21.3 21.4 21.5 21.5 21.4 21.4 21.3 21.3 21.2 21.1 21.1 21.0 20.9 20.8 20.7 20.5 20.4 20.3 20.2 20.1 20.0 21.2 21.3 21.4 21.5 21.6 21.7 21.8 21.8 21.8 21.7 21.6 21.6 21.5 21.4 21.3 21.2 21.1 21.0 20.9 20.7 20.6 20.4 20.3 20.2 20.1 20.0 21.4 21.5 21.7 21.8 21.9 22.0 22.2 22.2 22.2 22.1 21.9 21.8 21.7 21.6 21.5 21.3 21.2 21.1 20.9 20.8 20.6 20.5 20.3 20.2 20.1 20.0 21.7 21.8 22.0 22.1 22.3 22.4 22.6 22.7 22.6 22.4 22.2 22.1 21.9 21.8 21.6 21.5 21.3 21.2 21.0 20.8 20.6 20.5 20.3 20.2 20.1 20.0 21.9 22.1 22.3 22.5 22.7 22.9 23.1 23.2 23.1 22.8 22.6 22.4 22.2 22.0 21.8 21.6 21.4 21.2 21.0 20.9 20.7 20.5 20.3 20.2 20.1 20.0 22.2 22.5 22.8 23.0 23.2 23.5 23.9 24.0 23.7 23.3 23.0 22.8 22.5 22.3 22.0 21.8 21.5 21.3 21.1 20.9 20.7 20.5 20.3 20.2 20.1 20.0 22.7 23.9 24.4 23.9 23.8 24.2 24.7 24.8 24.4 23.9 23.5 23.2 22.9 22.5 22.2 21.9 21.7 21.4 21.1 20.9 20.7 20.5 20.4 20.2 20.1 20.1 23.7 25.8 26.5 25.7 25.5 26.6 27.1 26.2 25.3 24.7 24.1 23.7 23.2 22.8 22.4 22.1 21.8 21.5 21.2 20.9 20.7 20.5 20.4 20.2 20.1 20.1 26.4 28.5 29.2 27.0 25.8 29.9 33.1 30.3 27.0 25.6 24.8 24.2 23.6 23.1 22.6 22.2 21.9 21.5 21.2 21.0 20.8 20.6 20.4 20.3 20.1 20.1 30.2 35.7 36.8 30.4 26.5 39.2 52.2 49.9 39.1 28.5 25.7 24.8 24.0 23.4 22.9 22.4 22.0 21.7 21.4 21.1 20.9 20.7 20.5 20.3 20.1 20.1 41.9 59.7 62.5 46.0 36.2 77.4 123.1 141.5 112.8 49.6 27.4 25.5 24.6 23.8 23.1 22.6 22.2 21.8 21.5 21.2 20.9 20.7 20.5 20.3 20.2 20.1 63.0 109.3 147.2 126.1 99.8 185.1 272.6 287.0 222.9 94.4 32.1 26.4 25.2 24.3 23.5 22.8 22.4 21.9 21.5 21.2 20.9 20.7 20.5 20.3 20.1 20.1 63.0 120.3 192.0 188.9 154.0 246.4 338.6 305.3 200.3 85.3 33.6 27.3 25.9 24.8 23.8 23.0 22.4 22.0 21.5 21.2 20.9 20.7 20.5 20.3 20.1 20.1 46.6 94.9 160.4 159.9 119.6 172.7 237.9 198.8 105.2 44.4 30.8 27.5 25.9 24.7 23.7 23.0 22.4 21.9 21.5 21.2 20.9 20.7 20.5 20.3 20.1 20.1 37.1 73.0 120.8 114.6 76.5 91.5 124.2 117.7 77.2 40.1 29.3 26.8 25.2 24.2 23.4 22.8 22.3 21.9 21.5 21.2 20.9 20.7 20.5 20.3 20.1 20.1 30.0 46.5 70.0 69.9 52.8 54.1 65.1 76.1 63.8 35.9 27.3 25.6 24.5 23.7 23.1 22.6 22.1 21.8 21.4 21.2 20.9 20.7 20.5 20.3 20.1 20.1 25.0 31.2 37.3 37.4 34.5 35.3 38.6 46.8 41.8 28.3 25.7 24.8 24.0 23.4 22.9 22.4 22.0 21.6 21.3 21.1 20.8 20.6 20.5 20.3 20.1 20.1 20.0 20.0 20.0 20.0 20.0 20.0 20.0 20.0 20.0 20.0 20.0 20.0 20.0 20.0 20.0 20.0 20.0 20.0 20.0 20.0 20.0 20.0 20.1 20.1 20.1 20.1 20.1 20.1 20.1 20.1 20.1 20.1 20.1 20.1 20.1 20.1 20.1 20.1 20.1 20.1 20.1 20.1 20.1 20.1 20.1 20.1 20.1 20.1 20.1 20.1 20.1 20.1 20.1 20.2 20.2 20.2 20.2 20.2 20.2 20.2 20.2 20.2 20.2 20.2 20.2 20.2 20.2 20.2 20.2 20.2 20.2 20.2 20.2 20.2 20.2 20.2 20.1 20.1 20.2 20.2 20.3 20.3 20.3 20.3 20.3 20.3 20.3 20.3 20.3 20.3 20.3 20.3 20.3 20.3 20.3 20.3 20.3 20.3 20.3 20.3 20.3 20.2 20.1 20.1 20.3 20.3 20.4 20.4 20.4 20.4 20.4 20.4 20.5 20.5 20.4 20.4 20.4 20.4 20.4 20.4 20.5 20.5 20.5 20.5 20.4 20.4 20.3 20.2 20.1 20.0 20.4 20.4 20.5 20.5 20.5 20.5 20.5 20.6 20.6 20.6 20.6 20.6 20.6 20.6 20.6 20.6 20.6 20.6 20.6 20.6 20.5 20.4 20.3 20.2 20.1 20.0 20.5 20.6 20.6 20.6 20.6 20.6 20.7 20.8 20.8 20.8 20.8 20.8 20.8 20.8 20.8 20.8 20.8 20.7 20.7 20.6 20.6 20.5 20.3 20.2 20.1 20.0 20.7 20.7 20.8 20.8 20.8 20.9 20.9 21.0 21.1 21.1 21.0 21.0 21.0 21.0 21.0 20.9 20.9 20.8 20.8 20.7 20.6 20.5 20.3 20.2 20.1 20.0 20.9 20.9 21.0 21.1 21.1 21.1 21.2 21.3 21.3 21.3 21.3 21.2 21.2 21.2 21.1 21.1 21.0 20.9 20.9 20.8 20.6 20.5 20.4 20.2 20.1 20.0 21.1 21.1 21.2 21.3 21.4 21.4 21.5 21.6 21.6 21.6 21.5 21.5 21.4 21.4 21.3 21.2 21.1 21.0 20.9 20.8 20.7 20.5 20.4 20.2 20.1 20.0 21.3 21.4 21.5 21.6 21.7 21.8 21.9 22.0 22.0 21.9 21.8 21.7 21.7 21.6 21.5 21.4 21.3 21.1 21.0 20.9 20.7 20.5 20.4 20.2 20.1 20.0 21.5 21.6 21.8 21.9 22.0 22.1 22.3 22.4 22.3 22.2 22.1 22.0 21.9 21.8 21.6 21.5 21.4 21.2 21.1 20.9 20.7 20.5 20.4 20.2 20.1 20.1 21.7 21.9 22.0 22.2 22.4 22.6 22.7 22.8 22.7 22.6 22.4 22.3 22.1 22.0 21.8 21.7 21.5 21.3 21.2 21.0 20.8 20.6 20.4 20.2 20.1 20.1 22.0 22.2 22.4 22.6 22.8 23.0 23.2 23.3 23.2 23.0 22.8 22.6 22.4 22.2 22.0 21.8 21.6 21.4 21.2 21.0 20.8 20.6 20.4 20.2 20.1 20.1 22.3 22.6 22.8 23.0 23.1 23.5 23.8 23.9 23.7 23.5 23.2 22.9 22.7 22.5 22.2 22.0 21.7 21.5 21.3 21.0 20.8 20.6 20.4 20.2 20.1 20.1 22.8 23.6 23.9 23.6 23.7 24.1 24.6 24.7 24.4 24.0 23.6 23.3 23.0 22.7 22.4 22.1 21.9 21.6 21.3 21.1 20.8 20.6 20.4 20.3 20.1 20.1 24.4 26.1 26.4 25.4 25.0 25.7 26.3 25.9 25.2 24.6 24.2 23.8 23.4 23.0 22.6 22.3 22.0 21.7 21.4 21.1 20.8 20.6 20.4 20.3 20.1 20.1 32.1 30.8 28.3 25.6 26.3 28.1 28.4 27.5 26.3 25.5 24.8 24.2 23.7 23.3 22.9 22.5 22.1 21.7 21.4 21.1 20.9 20.6 20.5 20.3 20.1 20.1 41.1 39.5 33.0 25.8 27.8 30.9 31.0 31.5 30.0 27.3 25.7 24.8 24.2 23.6 23.1 22.6 22.2 21.9 21.5 21.2 20.9 20.7 20.5 20.3 20.2 20.1 63.0 77.9 60.1 33.0 36.3 43.8 50.7 85.2 80.1 37.9 26.9 25.5 24.6 23.9 23.3 22.8 22.4 22.0 21.6 21.3 21.0 20.8 20.6 20.3 20.2 20.1 105.6 150.5 128.1 73.6 100.9 145.8 159.1 206.7 171.1 65.7 29.8 26.3 25.2 24.5 23.7 23.1 22.5 22.1 21.7 21.3 21.0 20.8 20.5 20.3 20.2 20.1 97.2 159.8 157.1 111.6 168.3 245.2 255.7 240.2 157.7 63.6 31.1 27.1 25.9 24.9 24.0 23.2 22.6 22.1 21.7 21.2 20.9 20.7 20.5 20.3 20.1 20.1 63.6 126.6 133.4 93.1 126.0 180.4 195.7 164.7 88.3 40.8 29.8 27.3 25.9 24.8 23.9 23.2 22.6 22.1 21.6 21.3 20.9 20.7 20.5 20.3 20.1 20.1 58.9 110.8 127.3 84.6 64.8 80.7 99.9 110.0 82.6 43.5 28.8 26.6 25.3 24.3 23.6 23.0 22.5 22.0 21.6 21.3 21.0 20.7 20.5 20.3 20.2 20.1 47.1 78.0 100.3 77.6 46.8 46.4 60.4 83.7 75.5 39.6 27.2 25.6 24.7 23.9 23.3 22.8 22.3 21.9 21.6 21.2 21.0 20.7 20.5 20.3 20.2 20.1 32.2 45.6 52.8 44.6 33.9 34.0 40.5 53.8 46.9 28.5 25.7 25.0 24.3 23.6 23.1 22.6 22.2 21.8 21.5 21.2 20.9 20.7 20.5 20.3 20.2 20.1 20.0 20.0 20.0 20.0 20.0 20.0 20.0 20.0 20.0 20.0 20.0 20.0 20.0 20.0 20.0 20.0 20.0 20.0 20.0 20.0 20.0 20.1 20.1 20.1 20.1 20.1 20.1 20.1 20.1 20.1 20.1 20.1 20.1 20.1 20.1 20.1 20.1 20.1 20.1 20.1 20.1 20.1 20.1 20.1 20.1 20.1 20.1 20.1 20.1 20.2 20.1 20.1 20.1 20.2 20.2 20.2 20.2 20.2 20.2 20.2 20.2 20.2 20.2 20.2 20.2 20.2 20.2 20.2 20.2 20.2 20.2 20.2 20.2 20.3 20.3 20.3 20.2 20.1 20.2 20.3 20.3 20.3 20.3 20.3 20.3 20.3 20.3 20.3 20.3 20.3 20.3 20.3 20.3 20.3 20.4 20.4 20.4 20.4 20.4 20.4 20.4 20.3 20.1 20.1 20.3 20.3 20.4 20.4 20.4 20.4 20.4 20.4 20.5 20.5 20.5 20.4 20.5 20.5 20.5 20.5 20.5 20.5 20.5 20.5 20.5 20.5 20.4 20.3 20.1 20.1 20.4 20.4 20.5 20.5 20.5 20.5 20.5 20.6 20.6 20.7 20.7 20.7 20.7 20.7 20.7 20.7 20.7 20.7 20.7 20.7 20.6 20.5 20.4 20.3 20.1 20.0 20.5 20.6 20.6 20.6 20.7 20.7 20.7 20.8 20.9 20.9 20.9 20.9 20.9 20.9 20.9 20.9 20.9 20.8 20.8 20.8 20.7 20.6 20.4 20.2 20.1 20.0 20.7 20.8 20.8 20.9 20.9 20.9 20.9 21.1 21.2 21.2 21.1 21.1 21.1 21.1 21.1 21.1 21.0 21.0 20.9 20.8 20.7 20.6 20.4 20.2 20.1 20.0 20.9 21.0 21.0 21.1 21.2 21.2 21.3 21.4 21.5 21.4 21.4 21.4 21.3 21.3 21.2 21.2 21.1 21.1 21.0 20.9 20.8 20.6 20.4 20.2 20.1 20.1 21.1 21.2 21.3 21.4 21.4 21.5 21.6 21.7 21.8 21.7 21.6 21.6 21.5 21.5 21.4 21.3 21.2 21.2 21.1 20.9 20.8 20.6 20.4 20.2 20.1 20.1 21.3 21.4 21.6 21.7 21.7 21.8 22.0 22.1 22.1 22.0 21.9 21.8 21.7 21.6 21.6 21.5 21.4 21.3 21.1 21.0 20.8 20.6 20.4 20.2 20.1 20.1 21.5 21.7 21.8 22.0 22.1 22.2 22.4 22.5 22.4 22.3 22.2 22.0 22.0 21.8 21.7 21.6 21.5 21.4 21.2 21.1 20.8 20.6 20.4 20.2 20.1 20.1 21.7 21.9 22.1 22.3 22.4 22.6 22.8 22.9 22.8 22.6 22.5 22.3 22.2 22.1 21.9 21.8 21.6 21.5 21.3 21.1 20.9 20.6 20.4 20.2 20.1 20.1 21.9 22.2 22.4 22.6 22.8 23.1 23.3 23.4 23.3 23.0 22.8 22.7 22.5 22.3 22.1 21.9 21.8 21.6 21.4 21.1 20.9 20.6 20.4 20.2 20.1 20.1 22.2 22.5 22.8 23.0 23.2 23.5 23.9 23.9 23.7 23.5 23.3 23.0 22.8 22.6 22.3 22.1 21.9 21.7 21.4 21.2 20.9 20.6 20.4 20.3 20.1 20.1 22.6 23.1 23.4 23.4 23.6 24.0 24.5 24.6 24.4 24.0 23.7 23.4 23.1 22.8 22.6 22.3 22.0 21.8 21.5 21.2 20.9 20.6 20.4 20.3 20.1 20.1 23.9 24.7 25.1 24.8 24.6 25.0 25.6 25.6 25.2 24.7 24.2 23.8 23.5 23.1 22.8 22.5 22.2 21.8 21.5 21.2 20.9 20.6 20.4 20.3 20.1 20.1 32.3 29.8 27.4 26.1 26.4 26.2 26.6 26.6 26.0 25.4 24.8 24.3 23.8 23.4 23.0 22.6 22.3 21.9 21.6 21.3 20.9 20.7 20.5 20.3 20.1 20.1 48.4 39.9 31.9 27.6 29.0 27.8 27.9 28.8 28.1 26.4 25.6 24.9 24.3 23.7 23.3 22.8 22.4 22.0 21.7 21.3 21.0 20.7 20.5 20.3 20.2 20.1 79.9 77.6 52.0 33.8 35.9 32.7 35.7 58.7 54.5 29.3 26.6 25.6 24.7 24.1 23.6 23.0 22.6 22.2 21.7 21.4 21.0 20.8 20.6 20.4 20.2 20.1 126.4 147.7 93.2 60.1 76.1 76.1 83.5 131.4 111.3 38.3 28.0 26.3 25.3 24.6 24.0 23.3 22.7 22.2 21.8 21.4 21.0 20.8 20.5 20.3 20.2 20.1 115.8 156.9 119.4 109.6 145.7 155.9 160.6 158.1 106.8 39.8 29.2 27.0 25.8 25.0 24.3 23.5 22.9 22.3 21.8 21.4 21.0 20.7 20.5 20.3 20.1 20.1 77.1 122.4 108.2 106.4 129.0 135.0 147.0 122.4 70.2 35.8 29.1 27.1 25.8 25.0 24.2 23.5 22.9 22.3 21.8 21.4 21.0 20.7 20.5 20.3 20.1 20.1 76.1 121.1 115.9 84.7 64.7 57.3 73.9 93.1 77.5 42.0 28.2 26.4 25.2 24.5 23.8 23.3 22.8 22.2 21.7 21.4 21.0 20.7 20.5 20.3 20.2 20.1 67.9 107.8 117.7 82.1 45.4 37.4 47.4 72.1 68.9 38.0 26.8 25.6 24.7 24.1 23.5 23.0 22.5 22.1 21.7 21.3 21.0 20.8 20.5 20.3 20.2 20.1 43.7 68.7 72.7 52.9 34.1 31.4 36.7 46.5 40.9 27.7 25.7 25.0 24.4 23.8 23.3 22.8 22.4 22.0 21.6 21.3 21.0 20.7 20.5 20.3 20.2 20.1 20.0 20.0 20.0 20.0 20.0 20.0 20.0 20.0 20.0 20.1 20.0 20.0 20.0 20.0 20.0 20.0 20.0 20.0 20.1 20.1 20.1 20.1 20.1 20.1 20.1 20.1 20.1 20.1 20.1 20.1 20.1 20.1 20.1 20.1 20.1 20.1 20.1 20.1 20.1 20.1 20.1 20.1 20.1 20.1 20.1 20.1 20.1 20.1 20.2 20.2 20.2 20.1 20.1 20.2 20.2 20.2 20.2 20.2 20.2 20.2 20.2 20.2 20.2 20.2 20.2 20.2 20.2 20.2 20.2 20.2 20.3 20.3 20.3 20.3 20.3 20.3 20.2 20.1 20.2 20.3 20.3 20.3 20.3 20.3 20.3 20.3 20.3 20.4 20.3 20.3 20.3 20.3 20.4 20.4 20.4 20.4 20.5 20.5 20.5 20.5 20.5 20.3 20.2 20.1 20.3 20.3 20.4 20.4 20.4 20.4 20.4 20.4 20.5 20.5 20.5 20.5 20.5 20.5 20.6 20.6 20.6 20.6 20.6 20.6 20.6 20.6 20.5 20.3 20.1 20.1 20.4 20.5 20.5 20.5 20.5 20.5 20.5 20.6 20.7 20.7 20.7 20.7 20.7 20.8 20.8 20.8 20.8 20.8 20.8 20.7 20.7 20.6 20.5 20.3 20.1 20.1 20.6 20.6 20.6 20.7 20.7 20.7 20.7 20.8 20.9 21.0 21.0 21.0 21.0 21.0 21.0 21.0 20.9 20.9 20.9 20.8 20.7 20.6 20.5 20.3 20.1 20.1 20.7 20.8 20.8 20.9 20.9 20.9 21.0 21.1 21.2 21.3 21.2 21.2 21.2 21.2 21.1 21.1 21.0 21.0 20.9 20.9 20.8 20.7 20.5 20.3 20.1 20.1 20.9 21.0 21.1 21.1 21.2 21.3 21.4 21.5 21.5 21.5 21.5 21.4 21.4 21.3 21.3 21.2 21.1 21.1 21.0 20.9 20.8 20.7 20.5 20.3 20.1 20.1 21.1 21.2 21.3 21.4 21.5 21.6 21.7 21.8 21.9 21.8 21.7 21.6 21.5 21.5 21.4 21.3 21.2 21.2 21.1 21.0 20.9 20.7 20.5 20.3 20.1 20.1 21.3 21.4 21.6 21.7 21.8 21.9 22.1 22.2 22.2 22.0 21.9 21.8 21.7 21.6 21.5 21.5 21.4 21.3 21.2 21.1 20.9 20.7 20.5 20.3 20.1 20.1 21.5 21.7 21.8 22.0 22.1 22.3 22.5 22.5 22.5 22.3 22.2 22.0 21.9 21.8 21.7 21.6 21.5 21.4 21.3 21.1 20.9 20.7 20.5 20.3 20.1 20.1 21.7 21.9 22.1 22.3 22.5 22.7 22.9 22.9 22.9 22.6 22.5 22.3 22.2 22.0 21.9 21.8 21.7 21.5 21.4 21.2 21.0 20.7 20.5 20.3 20.1 20.1 22.0 22.2 22.4 22.6 22.8 23.2 23.4 23.4 23.3 23.0 22.8 22.6 22.5 22.3 22.1 22.0 21.8 21.6 21.4 21.2 21.0 20.7 20.5 20.3 20.1 20.1 22.2