<?xml version="1.0"?>
<VTKFile type="RectilinearGrid" version="1.0" byte_order="LittleEndian" header_type="UInt64">
<RectilinearGrid WholeExtent="25 50 0 25 0 15">
<Piece Extent="25 50 0 25 0 15">
<Coordinates>
<DataArray type="Float64" Name="Array X-Axis" format="ascii" RangeMin="15.0" RangeMax="30.0">
15.0 15.6 16.2 16.8 17.4 18.0 18.6 19.2 19.8 20.4 21.0 21.6 22.2 22.8 23.4 24.0 24.6 25.2 25.8 26.4 27.0 27.6 28.2 28.8 29.4 30.0 
</DataArray>
<DataArray type="Float64" Name="Array Y-Axis" format="ascii" RangeMin="0.0" RangeMax="15.0">
0.0 0.6 1.2 1.8 2.4 3.0 3.6 4.2 4.8 5.4 6.0 6.6 7.2 7.8 8.4 9.0 9.6 10.2 10.8 11.4 12.0 12.6 13.2 13.8 14.4 15.0 
</DataArray>
<DataArray type="Float64" Name="Array Z-Axis" format="ascii" RangeMin="0.0" RangeMax="9.0">
0.0 0.6 1.2 1.8 2.4 3.0 3.6 4.2 4.8 5.4 6.0 6.6 7.2 7.8 8.4 9.0 
</DataArray>
</Coordinates>
<PointData>
<DataArray Name="TEMPERATURE" NumberOfComponents="1" type="Float64" format="ascii">
20.0 20.0 20.0 20.1 20.1 20.1 20.1 20.1 20.1 20.1 20.0 20.0 20.0 20.0 20.0 20.0 20.0 20.0 20.0 20.0 20.0 20.0 20.0 20.0 20.0 20.0 20.1 20.1 20.1 20.1 20.1 20.1 20.2 20.2 20.1 20.1 20.1 20.1 20.1 20.1 20.1 20.1 20.1 20.1 20.1 20.1 20.1 20.1 20.0 20.0 20.0 20.0 20.1 20.1 20.2 20.2 20.2 20.2 20.2 20.3 20.3 20.2 20.2 20.2 20.2 20.2 20.1 20.1 20.1 20.1 20.1 20.1 20.1 20.1 20.1 20.1 20.1 20.0 20.2 20.2 20.2 20.3 20.3 20.3 20.3 20.4 20.4 20.4 20.4 20.3 20.3 20.2 20.2 20.2 20.2 20.2 20.2 20.2 20.2 20.2 20.2 20.1 20.1 20.0 20.3 20.3 20.3 20.4 20.4 20.4 20.4 20.5 20.5 20.5 20.5 20.4 20.4 20.3 20.3 20.3 20.3 20.3 20.3 20.3 20.3 20.2 20.2 20.1 20.1 20.0 20.4 20.4 20.4 20.5 20.5 20.5 20.5 20.6 20.6 20.7 20.6 20.5 20.5 20.4 20.4 20.4 20.4 20.4 20.3 20.3 20.3 20.3 20.2 20.1 20.1 20.0 20.5 20.5 20.6 20.6 20.6 20.6 20.6 20.7 20.7 20.8 20.8 20.7 20.6 20.5 20.5 20.5 20.5 20.5 20.4 20.4 20.4 20.3 20.2 20.1 20.1 20.0 20.6 20.6 20.7 20.8 20.8 20.8 20.8 20.8 20.9 20.9 20.9 20.8 20.7 20.7 20.6 20.6 20.6 20.6 20.6 20.5 20.4 20.3 20.2 20.1 20.1 20.0 20.7 20.8 20.8 20.9 21.0 21.0 21.0 21.0 21.0 21.1 21.0 20.9 20.8 20.8 20.8 20.7 20.7 20.7 20.6 20.5 20.4 20.3 20.2 20.2 20.1 20.0 20.9 20.9 21.0 21.1 21.1 21.2 21.3 21.3 21.3 21.3 21.2 21.1 21.0 20.9 20.9 20.9 20.9 20.8 20.7 20.5 20.4 20.3 20.3 20.2 20.1 20.0 21.0 21.1 21.2 21.3 21.4 21.4 21.5 21.5 21.5 21.5 21.4 21.2 21.2 21.1 21.1 21.1 21.0 20.8 20.7 20.6 20.5 20.4 20.3 20.2 20.1 20.0 21.2 21.3 21.4 21.5 21.6 21.7 21.8 21.8 21.8 21.7 21.6 21.4 21.3 21.3 21.3 21.2 21.0 20.8 20.7 20.6 20.5 20.4 20.3 20.2 20.1 20.1 21.4 21.5 21.7 21.8 22.0 22.1 22.1 22.1 22.0 21.9 21.8 21.6 21.6 21.5 21.4 21.2 21.1 20.9 20.8 20.6 20.5 20.4 20.3 20.2 20.1 20.1 21.6 21.7 22.0 22.2 22.4 22.5 22.6 22.5 22.4 22.3 22.0 21.9 21.9 21.7 21.5 21.3 21.1 21.0 20.8 20.7 20.6 20.5 20.4 20.2 20.1 20.1 21.8 22.0 22.3 22.6 22.8 23.0 23.1 23.1 23.0 22.7 22.4 22.3 22.2 21.9 21.6 21.4 21.2 21.0 20.9 20.8 20.6 20.5 20.4 20.2 20.1 20.1 22.1 22.4 22.7 23.0 23.3 23.5 23.8 23.8 23.6 23.1 22.8 22.7 22.4 22.0 21.7 21.5 21.3 21.1 21.0 20.8 20.7 20.5 20.4 20.2 20.1 20.1 22.5 22.8 23.2 23.7 24.2 24.5 24.6 24.5 24.1 23.7 23.3 22.9 22.5 22.2 21.9 21.6 21.4 21.2 21.0 20.9 20.7 20.6 20.4 20.3 20.2 20.1 22.8 23.2 23.7 24.3 25.1 25.7 25.8 25.5 25.0 24.4 23.8 23.2 22.7 22.4 22.1 21.8 21.6 21.3 21.1 20.9 20.8 20.7 20.5 20.4 20.3 20.2 23.4 23.8 24.4 25.1 26.2 27.1 27.4 26.9 26.0 25.1 24.3 23.5 23.0 22.7 22.5 22.2 21.8 21.6 21.3 21.0 20.9 20.8 20.6 20.5 20.3 20.2 24.0 24.6 25.3 26.4 28.4 31.6 34.6 33.8 29.6 26.6 25.2 24.3 23.5 23.1 22.8 22.4 22.0 21.7 21.4 21.1 20.9 20.8 20.6 20.4 20.3 20.2 24.9 25.8 27.2 29.5 31.4 35.1 40.9 39.7 33.7 28.4 26.4 25.1 24.0 23.4 22.9 22.3 21.9 21.6 21.4 21.2 20.9 20.7 20.6 20.4 20.3 20.2 25.9 27.3 29.0 32.0 34.2 20.0 20.0 38.1 34.2 29.0 27.0 25.6 24.3 23.6 22.9 22.3 21.9 21.6 21.4 21.2 21.0 20.7 20.6 20.4 20.2 20.1 26.5 27.9 29.1 32.2 34.7 20.0 20.0 34.4 31.9 28.4 26.7 25.5 24.5 23.6 22.9 22.3 22.0 21.7 21.4 21.2 21.0 20.8 20.5 20.3 20.1 20.1 26.0 27.1 28.1 31.6 35.0 35.8 33.8 30.5 28.9 27.3 25.9 24.9 24.2 23.4 22.7 22.2 21.9 21.7 21.4 21.2 20.9 20.7 20.5 20.3 20.1 20.1 24.8 25.6 26.5 29.2 31.9 32.9 31.7 28.7 26.7 25.8 24.9 24.2 23.5 22.9 22.4 22.0 21.7 21.5 21.3 21.0 20.8 20.6 20.5 20.3 20.1 20.1 23.1 24.5 25.1 26.5 27.9 28.8 28.7 27.0 25.4 24.6 24.0 23.4 22.9 22.5 22.2 21.9 21.6 21.4 21.1 20.9 20.7 20.6 20.4 20.3 20.1 20.1 20.0 20.0 20.0 20.1 20.1 20.1 20.1 20.1 20.1 20.1 20.0 20.0 20.0 20.0 20.0 20.0 20.0 20.0 20.0 20.0 20.0 20.0 20.0 20.0 20.0 20.0 20.1 20.1 20.1 20.1 20.1 20.1 20.1 20.1 20.1 20.1 20.1 20.1 20.1 20.1 20.1 20.1 20.1 20.1 20.1 20.1 20.1 20.0 20.0 20.0 20.0 20.0 20.1 20.1 20.1 20.2 20.2 20.2 20.2 20.3 20.2 20.2 20.2 20.2 20.2 20.1 20.1 20.1 20.1 20.1 20.1 20.1 20.1 20.1 20.1 20.1 20.0 20.0 20.2 20.2 20.2 20.3 20.3 20.3 20.3 20.4 20.4 20.3 20.3 20.3 20.2 20.2 20.2 20.2 20.2 20.2 20.2 20.2 20.2 20.2 20.2 20.1 20.0 20.0 20.3 20.3 20.3 20.3 20.4 20.4 20.4 20.5 20.5 20.5 20.5 20.4 20.3 20.3 20.3 20.3 20.3 20.3 20.2 20.2 20.2 20.2 20.2 20.1 20.1 20.0 20.4 20.4 20.4 20.5 20.5 20.5 20.5 20.6 20.6 20.6 20.6 20.5 20.4 20.4 20.4 20.4 20.4 20.3 20.3 20.3 20.3 20.3 20.2 20.1 20.1 20.0 20.5 20.5 20.5 20.6 20.6 20.6 20.6 20.7 20.7 20.7 20.7 20.6 20.5 20.5 20.5 20.5 20.4 20.4 20.4 20.4 20.4 20.3 20.2 20.1 20.1 20.0 20.6 20.6 20.7 20.7 20.8 20.8 20.8 20.9 20.9 20.9 20.8 20.7 20.6 20.6 20.6 20.6 20.6 20.6 20.6 20.5 20.4 20.3 20.2 20.1 20.1 20.0 20.7 20.7 20.8 20.9 21.0 21.0 21.0 21.0 21.1 21.1 21.0 20.9 20.8 20.7 20.7 20.7 20.7 20.7 20.6 20.5 20.4 20.3 20.2 20.2 20.1 20.0 20.8 20.9 21.0 21.1 21.1 21.2 21.2 21.3 21.3 21.3 21.2 21.0 20.9 20.9 20.9 20.9 20.9 20.8 20.6 20.5 20.4 20.3 20.2 20.2 20.1 20.0 21.0 21.1 21.2 21.3 21.4 21.4 21.5 21.5 21.6 21.5 21.3 21.2 21.1 21.1 21.1 21.1 21.0 20.8 20.6 20.5 20.4 20.3 20.3 20.2 20.1 20.0 21.1 21.3 21.4 21.5 21.7 21.8 21.8 21.8 21.8 21.7 21.5 21.4 21.3 21.3 21.3 21.2 21.0 20.8 20.7 20.6 20.5 20.4 20.3 20.2 20.1 20.0 21.3 21.5 21.7 21.8 22.0 22.1 22.2 22.2 22.1 21.9 21.7 21.6 21.6 21.5 21.4 21.2 21.0 20.8 20.7 20.6 20.5 20.4 20.3 20.2 20.1 20.0 21.6 21.8 22.0 22.2 22.4 22.6 22.7 22.6 22.5 22.3 22.0 22.0 21.9 21.8 21.5 21.3 21.1 20.9 20.8 20.7 20.6 20.4 20.3 20.2 20.1 20.1 21.9 22.1 22.3 22.7 22.9 23.1 23.3 23.3 23.0 22.7 22.4 22.3 22.2 21.9 21.6 21.4 21.2 21.0 20.9 20.7 20.6 20.5 20.3 20.2 20.1 20.1 22.2 22.4 22.8 23.2 23.5 23.8 24.1 24.0 23.6 23.2 22.9 22.7 22.4 22.0 21.7 21.5 21.3 21.1 20.9 20.8 20.6 20.5 20.4 20.2 20.1 20.1 22.5 22.8 23.3 23.8 24.4 24.9 25.0 24.7 24.3 23.8 23.4 23.0 22.6 22.2 21.9 21.6 21.4 21.2 21.0 20.8 20.7 20.5 20.4 20.3 20.1 20.1 23.0 23.4 23.9 24.6 25.4 26.3 26.6 25.9 25.2 24.6 23.9 23.3 22.8 22.4 22.1 21.8 21.6 21.3 21.1 20.9 20.8 20.6 20.5 20.3 20.2 20.1 23.5 24.1 24.7 25.8 27.3 28.6 29.5 28.3 26.4 25.3 24.4 23.7 23.1 22.7 22.5 22.2 21.9 21.6 21.3 21.0 20.9 20.7 20.5 20.4 20.2 20.1 24.2 24.8 25.9 28.3 33.2 40.3 46.8 40.8 29.9 26.6 25.3 24.4 23.6 23.2 22.8 22.4 22.1 21.7 21.4 21.1 20.9 20.7 20.5 20.4 20.2 20.1 25.1 26.2 28.8 38.3 79.8 158.2 176.4 92.7 35.9 28.9 26.6 25.3 24.2 23.5 23.0 22.4 22.0 21.7 21.4 21.2 20.9 20.7 20.5 20.4 20.2 20.2 26.4 28.0 31.1 42.8 128.6 368.8 361.2 119.2 40.0 31.1 27.5 25.9 24.6 23.8 23.1 22.5 22.0 21.7 21.4 21.2 20.9 20.7 20.5 20.4 20.2 20.1 27.3 28.8 30.4 38.1 117.1 298.7 266.8 93.6 37.3 30.5 27.2 25.8 24.8 23.8 23.1 22.5 22.0 21.7 21.4 21.2 20.9 20.7 20.5 20.3 20.2 20.1 26.5 27.8 29.6 36.6 77.8 114.1 102.0 62.8 31.6 27.9 26.1 25.1 24.3 23.5 22.8 22.3 22.0 21.7 21.4 21.1 20.9 20.7 20.5 20.3 20.1 20.1 24.9 25.9 27.7 32.1 41.0 43.4 39.7 34.7 28.2 26.0 25.0 24.2 23.6 23.0 22.5 22.1 21.8 21.5 21.3 21.0 20.8 20.6 20.4 20.3 20.1 20.1 23.2 24.7 25.4 27.0 28.6 30.2 31.7 29.6 26.2 24.9 24.2 23.6 23.0 22.6 22.2 21.9 21.6 21.4 21.1 20.9 20.7 20.6 20.4 20.3 20.1 20.1 20.0 20.0 20.0 20.0 20.1 20.0 20.1 20.0 20.0 20.0 20.0 20.0 20.0 20.0 20.0 20.0 20.0 20.0 20.0 20.0 20.0 20.0 20.0 20.0 20.0 20.0 20.1 20.1 20.1 20.1 20.1 20.1 20.1 20.1 20.1 20.1 20.1 20.1 20.1 20.1 20.1 20.1 20.1 20.1 20.0 20.0 20.0 20.0 20.0 20.0 20.0 20.0 20.1 20.1 20.1 20.1 20.2 20.2 20.2 20.2 20.2 20.2 20.2 20.2 20.1 20.1 20.1 20.1 20.1 20.1 20.1 20.1 20.1 20.1 20.1 20.1 20.0 20.0 20.2 20.2 20.2 20.2 20.3 20.3 20.3 20.3 20.3 20.3 20.3 20.2 20.2 20.2 20.2 20.2 20.2 20.2 20.2 20.1 20.1 20.1 20.1 20.1 20.0 20.0 20.3 20.3 20.3 20.3 20.3 20.4 20.4 20.4 20.4 20.4 20.4 20.3 20.3 20.3 20.3 20.3 20.2 20.2 20.2 20.2 20.2 20.2 20.2 20.1 20.0 20.0 20.3 20.4 20.4 20.4 20.5 20.5 20.5 20.5 20.6 20.6 20.5 20.4 20.4 20.4 20.3 20.3 20.3 20.3 20.3 20.3 20.3 20.2 20.2 20.1 20.0 20.0 20.4 20.5 20.5 20.6 20.6 20.6 20.6 20.7 20.7 20.7 20.6 20.5 20.5 20.5 20.4 20.4 20.4 20.4 20.4 20.4 20.3 20.2 20.2 20.1 20.0 20.0 20.5 20.6 20.6 20.7 20.8 20.8 20.8 20.8 20.9 20.8 20.7 20.6 20.6 20.6 20.5 20.5 20.5 20.6 20.5 20.5 20.3 20.2 20.2 20.1 20.1 20.0 20.7 20.7 20.8 20.9 21.0 21.0 21.0 21.0 21.0 21.0 20.9 20.8 20.7 20.7 20.7 20.7 20.7 20.7 20.6 20.4 20.3 20.3 20.2 20.1 20.1 20.0 20.8 20.9 21.0 21.1 21.2 21.2 21.2 21.3 21.3 21.2 21.0 20.9 20.9 20.8 20.8 20.9 20.8 20.7 20.6 20.4 20.4 20.3 20.2 20.1 20.1 20.0 20.9 21.1 21.2 21.3 21.4 21.5 21.5 21.6 21.5 21.4 21.2 21.1 21.0 21.0 21.0 21.0 20.9 20.7 20.6 20.5 20.4 20.3 20.2 20.1 20.1 20.0 21.1 21.3 21.4 21.6 21.7 21.8 21.9 21.9 21.8 21.6 21.4 21.3 21.3 21.3 21.3 21.1 20.9 20.7 20.6 20.5 20.4 20.3 20.2 20.2 20.1 20.0 21.3 21.5 21.7 21.9 22.1 22.2 22.3 22.3 22.1 21.9 21.7 21.6 21.6 21.6 21.4 21.1 20.9 20.8 20.7 20.6 20.4 20.4 20.3 20.2 20.1 20.0 21.6 21.8 22.0 22.3 22.6 22.7 22.9 22.8 22.5 22.2 22.1 22.0 21.9 21.7 21.5 21.2 21.0 20.9 20.7 20.6 20.5 20.4 20.3 20.2 20.1 20.0 21.9 22.1 22.4 22.8 23.1 23.5 23.7 23.5 23.1 22.7 22.6 22.4 22.2 21.9 21.5 21.3 21.1 21.0 20.8 20.7 20.5 20.4 20.3 20.2 20.1 20.0 22.2 22.5 22.9 23.4 23.9 24.3 24.6 24.3 23.7 23.3 23.1 22.8 22.4 22.1 21.7 21.5 21.2 21.1 20.9 20.7 20.6 20.4 20.3 20.2 20.1 20.0 22.7 23.0 23.4 24.1 24.8 25.8 26.2 25.5 24.6 24.1 23.6 23.2 22.7 22.2 21.9 21.6 21.3 21.1 21.0 20.8 20.6 20.5 20.4 20.2 20.1 20.1 23.2 23.7 24.4 25.4 26.6 28.6 32.9 31.4 26.2 24.9 24.2 23.5 23.0 22.5 22.1 21.8 21.5 21.3 21.1 20.9 20.7 20.6 20.4 20.2 20.1 20.1 23.9 24.6 25.6 28.2 30.8 35.0 44.8 45.6 33.7 26.3 24.8 24.0 23.3 22.8 22.4 22.1 21.8 21.5 21.3 21.0 20.8 20.6 20.4 20.3 20.1 20.1 24.9 25.9 29.2 37.8 46.9 61.9 88.8 84.6 47.4 27.8 25.7 24.7 23.8 23.3 22.9 22.5 22.1 21.7 21.4 21.1 20.9 20.7 20.4 20.3 20.1 20.1 26.8 28.9 34.9 59.6 130.5 223.7 270.4 195.1 77.0 33.5 27.4 25.8 24.6 23.8 23.3 22.7 22.2 21.8 21.5 21.2 20.9 20.7 20.5 20.3 20.2 20.1 28.1 30.8 36.5 66.4 197.5 373.8 392.3 241.6 100.3 44.0 29.0 26.8 25.2 24.3 23.5 22.8 22.2 21.8 21.5 21.2 20.9 20.7 20.5 20.3 20.2 20.1 28.2 30.3 34.2 56.6 179.2 319.5 308.7 180.5 77.8 42.7 28.7 26.7 25.5 24.3 23.4 22.8 22.2 21.8 21.5 21.2 20.9 20.7 20.5 20.3 20.2 20.1 27.0 28.6 31.9 48.1 113.8 162.2 154.8 100.9 43.4 31.8 27.0 25.8 24.9 23.9 23.1 22.6 22.1 21.7 21.4 21.1 20.9 20.7 20.5 20.3 20.1 20.1 25.3 26.3 29.1 36.4 47.9 52.6 50.4 41.5 30.4 26.8 25.5 24.6 23.9 23.2 22.7 22.2 21.9 21.6 21.3 21.0 20.8 20.6 20.4 20.3 20.1 20.1 23.5 25.2 26.5 28.5 30.1 32.0 34.3 31.9 27.2 25.5 24.6 23.9 23.3 22.8 22.3 21.9 21.6 21.3 21.1 20.9 20.7 20.5 20.4 20.3 20.1 20.1 20.0 20.0 20.0 20.0 20.1 20.1 20.0 20.0 20.0 20.0 20.0 20.0 20.0 20.0 20.0 20.0 20.0 20.0 20.0 20.0 20.0 20.0 20.0 20.0 20.0 20.0 20.1 20.1 20.1 20.1 20.1 20.1 20.1 20.1 20.1 20.1 20.1 20.1 20.1 20.1 20.1 20.1 20.0 20.0 20.0 20.0 20.0 20.0 20.0 20.0 20.0 20.0 20.1 20.1 20.1 20.2 20.2 20.2 20.2 20.2 20.2 20.2 20.2 20.1 20.1 20.1 20.1 20.1 20.1 20.1 20.1 20.1 20.1 20.1 20.1 20.1 20.0 20.0 20.2 20.2 20.2 20.3 20.3 20.3 20.3 20.3 20.3 20.3 20.3 20.2 20.2 20.2 20.2 20.2 20.2 20.1 20.1 20.1 20.1 20.1 20.1 20.1 20.0 20.0 20.3 20.3 20.3 20.4 20.4 20.4 20.4 20.4 20.4 20.4 20.4 20.3 20.3 20.3 20.3 20.2 20.2 20.2 20.2 20.2 20.2 20.2 20.1 20.1 20.0 20.0 20.4 20.4 20.4 20.5 20.5 20.5 20.5 20.6 20.6 20.5 20.5 20.4 20.4 20.4 20.3 20.3 20.3 20.3 20.3 20.3 20.3 20.2 20.1 20.1 20.0 20.0 20.5 20.5 20.5 20.6 20.6 20.7 20.7 20.7 20.7 20.7 20.6 20.5 20.5 20.5 20.4 20.4 20.4 20.4 20.4 20.4 20.3 20.2 20.1 20.1 20.0 20.0 20.6 20.6 20.7 20.8 20.8 20.8 20.8 20.9 20.9 20.8 20.7 20.6 20.6 20.6 20.5 20.5 20.5 20.5 20.5 20.4 20.3 20.2 20.2 20.1 20.0 20.0 20.7 20.8 20.8 20.9 21.0 21.0 21.0 21.0 21.0 21.0 20.8 20.8 20.7 20.7 20.7 20.7 20.7 20.7 20.6 20.4 20.3 20.2 20.2 20.1 20.1 20.0 20.8 20.9 21.0 21.2 21.2 21.3 21.3 21.3 21.3 21.1 21.0 20.9 20.9 20.8 20.8 20.9 20.8 20.7 20.5 20.4 20.3 20.2 20.2 20.1 20.1 20.0 21.0 21.1 21.2 21.4 21.5 21.5 21.6 21.6 21.5 21.3 21.2 21.1 21.1 21.0 21.1 21.0 20.9 20.7 20.6 20.4 20.4 20.3 20.2 20.1 20.1 20.0 21.2 21.3 21.5 21.7 21.8 21.9 21.9 21.9 21.8 21.6 21.4 21.3 21.3 21.3 21.3 21.1 20.9 20.7 20.6 20.5 20.4 20.3 20.2 20.1 20.1 20.0 21.4 21.6 21.7 22.0 22.2 22.3 22.4 22.4 22.1 21.9 21.7 21.6 21.6 21.6 21.4 21.1 20.9 20.8 20.6 20.5 20.4 20.3 20.2 20.2 20.1 20.0 21.6 21.8 22.1 22.4 22.7 22.9 23.0 22.9 22.5 22.3 22.1 22.0 22.0 21.7 21.4 21.2 21.0 20.9 20.7 20.6 20.5 20.4 20.3 20.2 20.1 20.0 22.0 22.2 22.5 22.8 23.2 23.6 23.8 23.6 23.1 22.8 22.7 22.5 22.2 21.9 21.5 21.3 21.1 21.0 20.8 20.7 20.5 20.4 20.3 20.2 20.1 20.0 22.3 22.7 23.1 23.5 24.0 24.5 24.9 24.5 23.8 23.5 23.3 22.9 22.5 22.1 21.7 21.5 21.3 21.1 20.9 20.7 20.6 20.4 20.3 20.2 20.1 20.0 22.8 23.3 24.0 24.5 25.7 27.3 27.7 26.3 24.9 24.4 23.8 23.3 22.7 22.3 21.9 21.7 21.4 21.2 21.0 20.8 20.6 20.5 20.3 20.2 20.1 20.0 23.5 24.2 25.6 26.8 28.0 32.2 37.8 34.5 27.2 25.4 24.5 23.7 23.1 22.6 22.2 21.8 21.5 21.3 21.1 20.8 20.7 20.5 20.4 20.2 20.1 20.1 24.2 25.4 28.2 31.3 33.2 46.8 65.7 61.7 40.1 27.2 25.3 24.3 23.5 22.9 22.4 22.1 21.8 21.5 21.2 21.0 20.8 20.6 20.4 20.2 20.1 20.1 26.1 29.8 40.1 52.2 57.1 99.8 155.3 135.8 67.7 29.6 26.3 25.0 24.1 23.4 22.9 22.4 22.0 21.7 21.4 21.1 20.9 20.7 20.4 20.3 20.1 20.1 28.5 35.1 55.4 97.7 157.9 251.6 328.3 280.2 132.2 39.3 28.3 26.3 25.0 24.0 23.4 22.7 22.3 21.9 21.5 21.2 21.0 20.7 20.5 20.3 20.1 20.1 29.4 35.5 56.1 122.8 248.9 381.3 433.1 362.2 190.0 58.6 30.7 27.6 25.8 24.6 23.8 23.0 22.4 22.0 21.6 21.3 21.0 20.7 20.5 20.3 20.1 20.1 29.0 33.7 52.7 116.7 234.1 334.6 352.8 277.5 148.1 56.5 30.5 27.6 26.0 24.7 23.8 23.0 22.4 22.0 21.6 21.3 21.0 20.7 20.5 20.3 20.2 20.1 27.5 30.4 43.4 84.0 138.6 174.1 176.4 132.7 70.8 36.8 28.1 26.4 25.3 24.3 23.4 22.7 22.3 21.9 21.5 21.2 20.9 20.7 20.5 20.3 20.1 20.1 25.6 26.9 31.3 44.9 52.6 58.4 60.6 50.1 37.9 28.3 26.1 25.1 24.3 23.5 22.9 22.4 22.0 21.7 21.4 21.1 20.8 20.6 20.5 20.3 20.1 20.1 23.7 25.7 27.6 31.4 33.2 33.8 34.9 32.5 28.7 26.2 25.0 24.2 23.6 23.0 22.5 22.1 21.7 21.4 21.2 20.9 20.7 20.6 20.4 20.3 20.1 20.1 20.0 20.0 20.0 20.0 20.0 20.0 20.0 20.0 20.0 20.0 20.0 20.0 20.0 20.0 20.0 20.0 20.0 20.0 20.0 20.0 20.0 20.0 20.0 20.0 20.0 20.0 20.1 20.1 20.1 20.1 20.1 20.1 20.1 20.1 20.1 20.1 20.1 20.1 20.1 20.1 20.1 20.1 20.1 20.1 20.0 20.0 20.0 20.0 20.0 20.0 20.0 20.0 20.1 20.2 20.2 20.2 20.2 20.2 20.2 20.2 20.2 20.2 20.2 20.1 20.1 20.1 20.1 20.1 20.1 20.1 20.1 20.1 20.1 20.1 20.1 20.1 20.0 20.0 20.2 20.2 20.3 20.3 20.3 20.3 20.3 20.3 20.3 20.3 20.3 20.2 20.2 20.2 20.2 20.2 20.2 20.2 20.2 20.2 20.1 20.1 20.1 20.1 20.0 20.0 20.3 20.3 20.4 20.4 20.4 20.4 20.4 20.4 20.5 20.4 20.4 20.3 20.3 20.3 20.3 20.3 20.3 20.2 20.2 20.2 20.2 20.2 20.1 20.1 20.0 20.0 20.4 20.5 20.5 20.5 20.6 20.6 20.6 20.6 20.6 20.6 20.5 20.4 20.4 20.4 20.4 20.4 20.3 20.3 20.3 20.3 20.3 20.2 20.2 20.1 20.0 20.0 20.5 20.6 20.6 20.7 20.7 20.7 20.7 20.7 20.7 20.7 20.6 20.6 20.5 20.5 20.5 20.5 20.4 20.4 20.4 20.4 20.3 20.2 20.2 20.1 20.0 20.0 20.6 20.7 20.8 20.8 20.9 20.9 20.9 20.9 20.9 20.9 20.8 20.7 20.7 20.6 20.6 20.6 20.6 20.6 20.5 20.4 20.3 20.3 20.2 20.1 20.0 20.0 20.8 20.9 20.9 21.0 21.1 21.1 21.1 21.1 21.1 21.0 20.9 20.8 20.8 20.8 20.7 20.7 20.7 20.7 20.6 20.5 20.4 20.3 20.2 20.1 20.1 20.0 20.9 21.0 21.1 21.2 21.3 21.3 21.3 21.4 21.3 21.2 21.1 21.0 21.0 20.9 20.9 20.9 20.8 20.7 20.6 20.5 20.4 20.3 20.2 20.1 20.1 20.0 21.1 21.2 21.3 21.5 21.5 21.6 21.6 21.7 21.6 21.4 21.3 21.2 21.2 21.1 21.1 21.0 20.9 20.8 20.6 20.5 20.4 20.3 20.2 20.1 20.1 20.0 21.3 21.4 21.6 21.7 21.8 21.9 22.0 22.0 21.9 21.7 21.5 21.4 21.4 21.4 21.3 21.1 21.0 20.8 20.7 20.6 20.4 20.3 20.2 20.2 20.1 20.0 21.5 21.7 21.9 22.1 22.2 22.3 22.4 22.4 22.2 22.0 21.8 21.7 21.7 21.6 21.4 21.2 21.0 20.8 20.7 20.6 20.5 20.4 20.3 20.2 20.1 20.0 21.7 22.0 22.2 22.4 22.7 22.8 23.0 22.9 22.6 22.4 22.2 22.1 22.0 21.8 21.5 21.3 21.1 20.9 20.8 20.7 20.5 20.4 20.3 20.2 20.1 20.0 22.1 22.3 22.6 22.9 23.2 23.5 23.8 23.6 23.1 22.9 22.8 22.6 22.3 22.0 21.6 21.4 21.3 21.1 20.9 20.8 20.6 20.4 20.3 20.2 20.1 20.0 22.5 23.0 23.4 23.6 23.9 24.4 24.8 24.5 23.9 23.6 23.3 22.9 22.5 22.1 21.8 21.6 21.4 21.2 21.0 20.8 20.6 20.5 20.3 20.2 20.1 20.0 23.0 23.9 25.0 25.3 26.2 27.8 28.0 26.4 25.0 24.5 23.9 23.3 22.8 22.4 22.1 21.8 21.5 21.3 21.0 20.8 20.7 20.5 20.4 20.2 20.1 20.1 23.7 25.3 27.8 28.3 27.3 31.7 35.7 31.9 27.3 25.6 24.7 23.8 23.2 22.7 22.3 21.9 21.6 21.4 21.1 20.9 20.7 20.5 20.4 20.2 20.1 20.1 24.8 28.0 33.4 34.3 29.6 46.2 65.3 56.9 38.5 27.2 25.5 24.4 23.6 23.0 22.5 22.1 21.8 21.5 21.2 21.0 20.8 20.6 20.4 20.3 20.1 20.1 28.9 41.7 59.2 63.1 49.0 101.9 165.2 136.0 70.1 30.4 26.4 25.1 24.2 23.5 22.9 22.4 22.0 21.7 21.4 21.1 20.9 20.7 20.5 20.3 20.1 20.1 33.8 58.3 99.5 136.3 128.1 215.0 324.3 278.4 140.3 39.1 28.5 26.4 25.2 24.1 23.4 22.8 22.3 21.9 21.6 21.2 21.0 20.7 20.5 20.3 20.1 20.1 34.1 57.3 112.8 191.0 202.4 295.8 419.0 378.6 206.9 54.3 30.8 27.8 26.1 24.8 23.9 23.1 22.6 22.1 21.7 21.3 21.0 20.8 20.5 20.3 20.2 20.1 32.3 50.2 106.7 190.2 197.4 254.9 348.3 318.6 182.4 54.5 30.8 27.8 26.2 25.0 24.0 23.2 22.6 22.1 21.7 21.3 21.0 20.8 20.5 20.3 20.2 20.1 30.0 41.5 80.1 134.5 134.4 149.4 184.5 174.4 114.4 44.1 28.8 26.4 25.3 24.5 23.6 22.9 22.4 22.0 21.6 21.3 21.0 20.7 20.5 20.3 20.2 20.1 26.9 31.1 43.5 64.7 67.0 67.9 71.7 73.4 62.5 34.9 26.6 25.2 24.4 23.7 23.1 22.6 22.1 21.8 21.5 21.2 20.9 20.7 20.5 20.3 20.2 20.1 24.0 26.6 29.5 36.3 38.1 35.9 35.8 34.9 31.6 26.8 25.3 24.5 23.8 23.2 22.7 22.3 21.9 21.6 21.3 21.1 20.8 20.6 20.4 20.3 20.1 20.1 20.0 20.0 20.1 20.1 20.1 20.0 20.0 20.0 20.0 20.0 20.0 20.0 20.0 20.0 20.0 20.0 20.0 20.0 20.0 20.0 20.0 20.0 20.0 20.0 20.0 20.0 20.1 20.1 20.1 20.1 20.1 20.1 20.1 20.1 20.1 20.1 20.1 20.1 20.1 20.1 20.1 20.1 20.1 20.1 20.1 20.1 20.1 20.1 20.0 20.0 20.0 20.0 20.2 20.2 20.2 20.2 20.2 20.2 20.2 20.2 20.2 20.2 20.2 20.2 20.1 20.1 20.1 20.1 20.1 20.1 20.1 20.1 20.1 20.1 20.1 20.1 20.0 20.0 20.2 20.3 20.3 20.3 20.3 20.3 20.3 20.3 20.3 20.3 20.3 20.3 20.3 20.2 20.2 20.2 20.2 20.2 20.2 20.2 20.2 20.2 20.1 20.1 20.0 20.0 20.3 20.4 20.4 20.5 20.5 20.5 20.5 20.5 20.5 20.5 20.4 20.4 20.4 20.4 20.3 20.3 20.3 20.3 20.3 20.3 20.3 20.2 20.2 20.1 20.0 20.0 20.5 20.5 20.6 20.6 20.6 20.6 20.6 20.6 20.6 20.6 20.6 20.5 20.5 20.5 20.4 20.4 20.4 20.4 20.4 20.4 20.3 20.3 20.2 20.1 20.0 20.0 20.6 20.6 20.7 20.7 20.8 20.7 20.8 20.8 20.8 20.8 20.7 20.6 20.6 20.6 20.6 20.5 20.5 20.5 20.5 20.5 20.4 20.3 20.2 20.1 20.1 20.0 20.7 20.8 20.8 20.9 20.9 20.9 20.9 21.0 21.0 20.9 20.8 20.8 20.7 20.7 20.7 20.7 20.6 20.6 20.6 20.5 20.4 20.3 20.2 20.1 20.1 20.0 20.9 20.9 21.0 21.1 21.1 21.1 21.1 21.2 21.1 21.1 21.0 20.9 20.9 20.9 20.8 20.8 20.8 20.7 20.6 20.5 20.4 20.3 20.2 20.1 20.1 20.0 21.0 21.1 21.2 21.3 21.3 21.3 21.4 21.4 21.4 21.3 21.2 21.1 21.1 21.0 21.0 20.9 20.9 20.8 20.7 20.6 20.4 20.3 20.2 20.1 20.1 20.0 21.2 21.3 21.4 21.5 21.6 21.6 21.7 21.7 21.6 21.5 21.4 21.3 21.3 21.3 21.2 21.1 21.0 20.8 20.7 20.6 20.5 20.4 20.3 20.2 20.1 20.0 21.3 21.5 21.6 21.8 21.9 21.9 22.0 22.0 21.9 21.8 21.6 21.5 21.5 21.5 21.3 21.2 21.0 20.9 20.8 20.7 20.5 20.4 20.3 20.2 20.1 20.0 21.6 21.8 21.9 22.1 22.2 22.3 22.4 22.4 22.3 22.1 22.0 21.8 21.8 21.6 21.5 21.3 21.1 21.0 20.9 20.7 20.6 20.4 20.3 20.2 20.1 20.0 21.8 22.0 22.3 22.5 22.6 22.8 23.0 23.0 22.7 22.5 22.3 22.2 22.0 21.8 21.6 21.4 21.3 21.1 20.9 20.8 20.6 20.5 20.3 20.2 20.1 20.0 22.2 22.5 22.8 22.9 23.1 23.4 23.7 23.6 23.2 23.0 22.8 22.6 22.3 22.0 21.8 21.6 21.4 21.2 21.0 20.8 20.7 20.5 20.3 20.2 20.1 20.0 22.8 23.7 24.1 23.8 23.8 24.2 24.6 24.4 24.0 23.7 23.3 23.0 22.6 22.3 22.0 21.8 21.5 21.3 21.1 20.9 20.7 20.5 20.4 20.2 20.1 20.1 23.7 25.4 26.6 26.3 25.8 26.6 27.1 26.1 25.0 24.5 24.0 23.4 23.0 22.6 22.2 21.9 21.7 21.4 21.1 20.9 20.7 20.5 20.4 20.2 20.1 20.1 26.7 31.2 32.3 28.4 27.0 31.1 32.9 30.1 27.0 25.5 24.7 24.0 23.4 22.9 22.4 22.1 21.8 21.5 21.2 21.0 20.8 20.6 20.4 20.3 20.1 20.1 35.9 44.8 44.3 32.6 32.9 49.1 53.2 44.7 34.6 26.9 25.4 24.5 23.8 23.2 22.6 22.2 21.9 21.6 21.3 21.1 20.9 20.7 20.5 20.3 20.1 20.1 51.9 74.2 81.9 57.4 53.4 96.6 115.6 98.1 62.6 30.5 26.4 25.2 24.3 23.6 23.0 22.5 22.1 21.8 21.5 21.2 21.0 20.7 20.5 20.3 20.2 20.1 65.4 108.8 143.0 116.8 103.7 189.3 242.6 203.5 110.7 36.4 28.2 26.4 25.2 24.2 23.5 22.9 22.4 22.0 21.6 21.3 21.0 20.7 20.5 20.3 20.2 20.1 65.5 113.2 173.0 162.5 149.7 267.0 353.5 298.1 154.4 45.5 30.3 27.7 26.1 24.9 23.9 23.2 22.6 22.1 21.7 21.3 21.0 20.7 20.5 20.3 20.2 20.1 54.5 97.8 165.3 162.6 142.3 238.5 320.0 291.1 167.9 54.9 31.8 27.8 26.2 25.1 24.1 23.2 22.6 22.1 21.7 21.3 21.0 20.8 20.5 20.3 20.2 20.1 40.6 74.5 126.9 133.1 108.9 138.9 175.3 190.1 141.0 55.4 30.8 26.6 25.4 24.6 23.8 23.1 22.5 22.0 21.6 21.3 21.0 20.8 20.6 20.4 20.2 20.1 30.7 44.3 66.3 80.0 71.1 62.7 66.7 85.2 78.5 40.5 27.6 25.5 24.6 23.9 23.3 22.8 22.3 21.8 21.5 21.3 21.0 20.8 20.6 20.4 20.2 20.1 25.2 28.6 32.6 39.4 40.1 35.9 35.3 36.3 33.3 27.5 25.8 24.8 24.1 23.4 22.9 22.4 22.0 21.7 21.4 21.1 20.9 20.7 20.5 20.3 20.2 20.1 20.0 20.0 20.1 20.1 20.1 20.1 20.0 20.0 20.0 20.1 20.0 20.0 20.0 20.0 20.0 20.0 20.0 20.0 20.0 20.0 20.0 20.0 20.0 20.0 20.0 20.0 20.1 20.1 20.1 20.1 20.1 20.1 20.1 20.1 20.1 20.1 20.1 20.1 20.1 20.1 20.1 20.1 20.1 20.1 20.1 20.1 20.1 20.1 20.1 20.1 20.0 20.0 20.2 20.2 20.2 20.2 20.2 20.2 20.2 20.2 20.2 20.2 20.2 20.2 20.2 20.2 20.2 20.2 20.2 20.1 20.1 20.1 20.2 20.2 20.1 20.1 20.1 20.0 20.3 20.3 20.3 20.3 20.3 20.3 20.3 20.4 20.4 20.4 20.3 20.3 20.3 20.3 20.3 20.3 20.3 20.2 20.2 20.2 20.2 20.2 20.2 20.1 20.1 20.0 20.4 20.4 20.4 20.4 20.4 20.4 20.5 20.5 20.5 20.5 20.5 20.4 20.4 20.4 20.4 20.4 20.4 20.4 20.4 20.4 20.3 20.3 20.2 20.1 20.1 20.0 20.5 20.5 20.6 20.6 20.6 20.6 20.6 20.7 20.7 20.7 20.6 20.5 20.5 20.5 20.5 20.5 20.5 20.5 20.5 20.5 20.4 20.3 20.2 20.1 20.1 20.0 20.6 20.7 20.7 20.7 20.7 20.7 20.8 20.8 20.8 20.8 20.8 20.7 20.7 20.7 20.6 20.6 20.6 20.6 20.6 20.5 20.4 20.3 20.2 20.1 20.1 20.0 20.7 20.8 20.9 20.9 20.9 20.9 21.0 21.0 21.0 21.0 20.9 20.8 20.8 20.8 20.8 20.8 20.7 20.7 20.6 20.6 20.5 20.3 20.2 20.1 20.1 20.0 20.9 21.0 21.0 21.1 21.1 21.1 21.1 21.2 21.2 21.2 21.1 21.0 21.0 21.0 20.9 20.9 20.8 20.8 20.7 20.6 20.5 20.4 20.2 20.1 20.1 20.0 21.0 21.1 21.2 21.3 21.3 21.3 21.4 21.4 21.4 21.4 21.3 21.2 21.1 21.1 21.1 21.0 20.9 20.8 20.7 20.6 20.5 20.4 20.3 20.2 20.1 20.0 21.2 21.3 21.4 21.5 21.6 21.6 21.7 21.7 21.7 21.6 21.5 21.4 21.4 21.3 21.2 21.1 21.0 20.9 20.8 20.7 20.5 20.4 20.3 20.2 20.1 20.0 21.4 21.5 21.6 21.8 21.9 21.9 22.0 22.1 22.0 21.9 21.8 21.7 21.6 21.5 21.4 21.3 21.1 21.0 20.9 20.7 20.6 20.4 20.3 20.2 20.1 20.0 21.6 21.8 21.9 22.1 22.2 22.3 22.4 22.5 22.4 22.2 22.1 22.0 21.8 21.7 21.5 21.4 21.3 21.1 20.9 20.8 20.6 20.5 20.3 20.2 20.1 20.0 21.9 22.1 22.3 22.4 22.5 22.7 22.9 22.9 22.8 22.6 22.4 22.3 22.1 21.9 21.7 21.6 21.4 21.2 21.0 20.8 20.6 20.5 20.3 20.2 20.1 20.0 22.3 22.6 22.8 22.9 23.1 23.3 23.5 23.5 23.3 23.1 22.8 22.6 22.4 22.1 21.9 21.7 21.5 21.3 21.1 20.9 20.7 20.5 20.4 20.2 20.1 20.0 23.3 24.4 24.4 23.8 23.6 24.0 24.4 24.4 24.1 23.7 23.3 23.0 22.7 22.4 22.1 21.9 21.6 21.3 21.1 20.9 20.7 20.5 20.4 20.2 20.1 20.1 27.0 29.0 27.6 26.3 25.3 25.6 26.2 25.8 25.0 24.5 23.9 23.5 23.1 22.7 22.3 22.0 21.7 21.4 21.2 20.9 20.7 20.5 20.4 20.2 20.1 20.1 37.1 40.7 33.9 27.5 29.2 31.3 30.3 28.3 26.4 25.3 24.6 24.0 23.5 23.0 22.6 22.2 21.9 21.5 21.3 21.0 20.8 20.6 20.4 20.3 20.1 20.1 56.6 63.6 47.3 33.7 47.7 57.0 46.9 35.7 30.6 26.6 25.3 24.5 23.8 23.3 22.8 22.4 22.0 21.7 21.4 21.1 20.9 20.7 20.5 20.3 20.2 20.1 87.0 106.4 80.0 64.3 104.5 119.9 88.6 64.7 48.8 30.4 26.3 25.2 24.2 23.6 23.1 22.7 22.3 21.9 21.6 21.3 21.0 20.7 20.5 20.3 20.2 20.1 111.8 154.1 126.4 108.1 183.0 217.9 167.8 116.8 69.8 34.4 27.9 26.2 25.0 24.2 23.5 23.0 22.5 22.0 21.7 21.3 21.0 20.7 20.5 20.3 20.2 20.1 113.7 165.1 148.0 127.7 222.6 291.4 258.4 185.7 95.5 42.0 29.9 27.5 25.8 24.8 24.0 23.2 22.6 22.1 21.6 21.3 21.0 20.7 20.5 20.3 20.2 20.1 96.4 146.5 141.2 112.5 184.6 255.1 253.9 224.0 138.4 58.1 32.5 27.8 26.1 25.0 24.1 23.3 22.6 22.0 21.6 21.2 21.0 20.7 20.5 20.3 20.1 20.1 66.6 113.9 132.7 105.8 111.4 131.6 138.4 161.7 127.0 55.6 31.7 26.8 25.5 24.5 23.7 23.1 22.5 22.0 21.6 21.3 21.0 20.8 20.6 20.4 20.2 20.1 41.3 64.1 87.2 81.5 61.2 49.3 51.6 69.9 63.7 36.1 27.8 25.7 24.7 24.0 23.3 22.8 22.3 21.8 21.5 21.3 21.0 20.8 20.6 20.4 20.2 20.1 28.1 31.5 36.2 38.9 37.0 33.9 33.5 34.0 31.4 27.5 26.0 25.0 24.2 23.5 23.0 22.5 22.0 21.7 21.4 21.1 20.9 20.7 20.5 20.3 20.2 20.1 20.0 20.0 20.1 20.1 20.0 20.0 20.0 20.0 20.0 20.0 20.0 20.0 20.0 20.0 20.0 20.0 20.0 20.0 20.0 20.0 20.0 20.0 20.0 20.0 20.0 20.0 20.1 20.1 20.1 20.1 20.1 20.1 20.1 20.1 20.1 20.1 20.1 20.1 20.1 20.1 20.1 20.1 20.1 20.1 20.1 20.1 20.1 20.1 20.1 20.1 20.1 20.0 20.2 20.2 20.2 20.2 20.2 20.2 20.2 20.2 20.2 20.2 20.2 20.2 20.2 20.2 20.2 20.2 20.2 20.2 20.2 20.1 20.2 20.2 20.2 20.1 20.1 20.0 20.3 20.3 20.3 20.3 20.3 20.3 20.3 20.3 20.4 20.4 20.3 20.3 20.3 20.3 20.3 20.3 20.3 20.3 20.3 20.3 20.3 20.3 20.2 20.1 20.1 20.0 20.4 20.4 20.4 20.5 20.5 20.4 20.4 20.5 20.5 20.5 20.5 20.4 20.4 20.4 20.4 20.4 20.4 20.4 20.4 20.4 20.4 20.3 20.3 20.2 20.1 20.0 20.5 20.5 20.6 20.6 20.6 20.6 20.6 20.6 20.7 20.7 20.7 20.6 20.6 20.5 20.5 20.5 20.5 20.5 20.5 20.5 20.4 20.4 20.3 20.2 20.1 20.0 20.6 20.7 20.7 20.8 20.7 20.7 20.7 20.8 20.9 20.9 20.8 20.8 20.7 20.7 20.7 20.7 20.7 20.6 20.6 20.6 20.5 20.4 20.3 20.2 20.1 20.0 20.8 20.8 20.9 20.9 20.9 20.9 20.9 21.0 21.0 21.0 21.0 20.9 20.9 20.9 20.9 20.8 20.8 20.7 20.7 20.6 20.5 20.4 20.3 20.2 20.1 20.0 20.9 21.0 21.1 21.1 21.1 21.1 21.1 21.2 21.2 21.2 21.2 21.1 21.0 21.1 21.0 20.9 20.9 20.8 20.7 20.6 20.5 20.4 20.3 20.2 20.1 20.0 21.0 21.1 21.2 21.3 21.3 21.3 21.4 21.4 21.4 21.4 21.4 21.3 21.2 21.2 21.2 21.1 21.0 20.9 20.8 20.7 20.5 20.4 20.3 20.2 20.1 20.0 21.2 21.3 21.4 21.5 21.6 21.6 21.7 21.7 21.8 21.7 21.6 21.5 21.5 21.4 21.3 21.2 21.1 21.0 20.9 20.7 20.6 20.4 20.3 20.2 20.1 20.0 21.4 21.5 21.6 21.8 21.9 21.9 22.0 22.1 22.1 22.0 21.9 21.8 21.7 21.6 21.4 21.3 21.2 21.1 20.9 20.8 20.6 20.5 20.3 20.2 20.1 20.0 21.7 21.9 21.9 22.1 22.2 22.2 22.4 22.5 22.5 22.3 22.2 22.1 21.9 21.8 21.6 21.5 21.3 21.2 21.0 20.8 20.6 20.5 20.3 20.2 20.1 20.0 22.1 22.2 22.3 22.4 22.5 22.7 22.8 22.9 22.9 22.7 22.5 22.3 22.1 22.0 21.8 21.7 21.5 21.2 21.0 20.8 20.6 20.5 20.3 20.2 20.1 20.0 22.4 22.7 22.8 22.8 23.0 23.2 23.5 23.5 23.4 23.2 22.9 22.6 22.4 22.2 22.0 21.8 21.6 21.3 21.1 20.9 20.7 20.5 20.4 20.2 20.1 20.0 23.5 24.5 24.2 23.5 23.4 23.7 24.2 24.3 24.1 23.7 23.4 23.0 22.8 22.5 22.3 22.0 21.7 21.4 21.1 20.9 20.7 20.5 20.4 20.2 20.1 20.0 30.0 32.2 27.2 25.2 24.6 24.8 25.5 25.5 24.8 24.3 23.9 23.5 23.2 22.9 22.5 22.1 21.8 21.5 21.2 20.9 20.7 20.5 20.4 20.2 20.1 20.1 48.7 50.4 33.9 27.2 28.7 28.5 28.2 27.3 25.9 25.0 24.5 24.0 23.6 23.2 22.8 22.3 21.9 21.6 21.3 21.0 20.8 20.6 20.4 20.3 20.1 20.1 73.8 79.0 51.0 35.0 46.5 50.6 45.0 36.2 30.9 26.4 25.2 24.6 24.0 23.5 23.0 22.5 22.1 21.7 21.4 21.1 20.9 20.6 20.5 20.3 20.1 20.1 102.8 121.3 97.8 102.4 136.3 128.0 91.2 60.5 45.5 31.6 26.3 25.2 24.4 23.8 23.3 22.8 22.3 21.9 21.6 21.2 21.0 20.7 20.5 20.3 20.2 20.1 130.8 162.7 141.6 178.3 235.8 208.7 141.8 85.4 55.2 35.8 27.7 26.1 25.0 24.3 23.7 23.1 22.6 22.1 21.6 21.3 21.0 20.8 20.5 20.3 20.2 20.1 140.4 175.9 148.9 186.3 245.5 223.9 175.4 115.4 66.5 38.7 29.2 27.2 25.7 24.9 24.1 23.3 22.7 22.1 21.6 21.2 20.9 20.7 20.5 20.3 20.2 20.1 122.9 156.4 132.9 149.5 185.6 170.7 166.7 158.0 105.9 47.6 31.1 27.6 26.1 25.0 24.1 23.3 22.6 22.1 21.6 21.2 20.9 20.7 20.5 20.3 20.1 20.1 83.5 118.6 125.9 117.1 107.1 88.1 97.0 124.9 97.2 43.8 30.3 26.9 25.7 24.7 23.8 23.1 22.5 22.0 21.6 21.2 20.9 20.7 20.5 20.3 20.2 20.1 49.6 67.8 89.3 81.6 58.6 43.8 42.2 52.3 46.1 30.7 27.4 25.9 25.1 24.2 23.4 22.8 22.3 21.9 21.5 21.2 21.0 20.7 20.5 20.4 20.2 20.1 31.1 32.4 36.9 39.2 36.7 33.2 31.8 31.2 29.2 27.0 25.9 25.1 24.5 23.8 23.1 22.6 22.1 21.7 21.4 21.1 20.9 20.7 20.5 20.3 20.2 20.1 20.0 20.0 20.1 20.1 20.0 20.0 20.0 20.0 20.0 20.0 20.0 20.0 20.0 20.0 20.0 20.0 20.0 20.1 20.1 20.1 20.1 20.1 20.1 20.1 20.1 20.0 20.1 20.1 20.1 20.1 20.1 20.1 20.1 20.1 20.1 20.1 20.1 20.1 20.1 20.1 20.1 20.1 20.1 20.1 20.1 20.1 20.1 20.1 20.1 20.1 20.1 20.0 20.2 20.2 20.2 20.2 20.2 20.2 20.2 20.2 20.2 20.2 20.2 20.2 20.2 20.2 20.2 20.2 20.2 20.2 20.2 20.2 20.2 20.2 20.2 20.2 20.1 20.1 20.3 20.3 20.3 20.4 20.3 20.3 20.3 20.3 20.4 20.4 20.4 20.3 20.3 20.3 20.3 20.3 20.3 20.3 20.3 20.3 20.3 20.3 20.3 20.2 20.1 20.0 20.4 20.4 20.5 20.5 20.5 20.4 20.4 20.5 20.5 20.5 20.5 20.5 20.5 20.4 20.4 20.4 20.4 20.4 20.4 20.4 20.4 20.4 20.3 20.2 20.1 20.0 20.6 20.6 20.6 20.7 20.6 20.6 20.6 20.6 20.7 20.7 20.7 20.7 20.6 20.6 20.6 20.6 20.6 20.6 20.6 20.5 20.5 20.4 20.3 20.2 20.1 20.0 20.7 20.8 20.8 20.8 20.8 20.8 20.8 20.8 20.9 20.9 21.0 20.9 20.8 20.8 20.8 20.7 20.7 20.7 20.7 20.6 20.5 20.4 20.3 20.2 20.1 20.0 20.8 20.9 21.0 21.0 21.0 21.0 20.9 21.0 21.0 21.1 21.2 21.1 21.0 21.0 21.0 20.9 20.8 20.8 20.8 20.7 20.6 20.4 20.3 20.2 20.1 20.0 21.0 21.0 21.1 21.2 21.2 21.1 21.1 21.2 21.2 21.3 21.3 21.3 21.2 21.2 21.1 21.0 20.9 20.9 20.8 20.7 20.6 20.4 20.3 20.2 20.1 20.0 21.1 21.1 21.3 21.4 21.4 21.4 21.4 21.4 21.5 21.5 21.5 21.5 21.4 21.3 21.2 21.1 21.0 20.9 20.8 20.7 20.6 20.4 20.3 20.2 20.1 20.0 21.2 21.3 21.4 21.6 21.6 21.6 21.6 21.7 21.8 21.8 21.8 21.7 21.6 21.5 21.3 21.2 21.1 21.0 20.9 20.8 20.6 20.4 20.3 20.2 20.1 20.0 21.5 21.5 21.6 21.8 21.9 21.9 22.0 22.1 22.2 22.1 22.1 21.9 21.7 21.6 21.5 21.4 21.3 21.1 21.0 20.8 20.6 20.5 20.3 20.2 20.1 20.0 21.9 21.9 21.9 22.1 22.2 22.2 22.3 22.5 22.6 22.5 22.3 22.1 22.0 21.8 21.6 21.5 21.4 21.2 21.1 20.9 20.6 20.5 20.3 20.2 20.1 20.0 22.2 22.3 22.3 22.4 22.5 22.7 22.8 22.9 23.0 22.9 22.6 22.4 22.2 22.0 21.9 21.7 21.5 21.3 21.1 20.8 20.6 20.5 20.3 20.2 20.