<?xml version="1.0"?>
<VTKFile type="RectilinearGrid" version="1.0" byte_order="LittleEndian" header_type="UInt64">
<RectilinearGrid WholeExtent="25 50 0 25 0 15">
<Piece Extent="25 50 0 25 0 15">
<Coordinates>
<DataArray type="Float64" Name="Array X-Axis" format="ascii" RangeMin="15.0" RangeMax="30.0">
15.0 15.6 16.2 16.8 17.4 18.0 18.6 19.2 19.8 20.4 21.0 21.6 22.2 22.8 23.4 24.0 24.6 25.2 25.8 26.4 27.0 27.6 28.2 28.8 29.4 30.0 
</DataArray>
<DataArray type="Float64" Name="Array Y-Axis" format="ascii" RangeMin="0.0" RangeMax="15.0">
0.0 0.6 1.2 1.8 2.4 3.0 3.6 4.2 4.8 5.4 6.0 6.6 7.2 7.8 8.4 9.0 9.6 10.2 10.8 11.4 12.0 12.6 13.2 13.8 14.4 15.0 
</DataArray>
<DataArray type="Float64" Name="Array Z-Axis" format="ascii" RangeMin="0.0" RangeMax="9.0">
0.0 0.6 1.2 1.8 2.4 3.0 3.6 4.2 4.8 5.4 6.0 6.6 7.2 7.8 8.4 9.0 
</DataArray>
</Coordinates>
<PointData>
<DataArray Name="TEMPERATURE" NumberOfComponents="1" type="Float64" format="ascii">
20.0 20.0 20.0 20.0 20.0 20.0 20.0 20.0 20.0 20.1 20.0 20.0 20.0 20.0 20.0 20.0 20.0 20.0 20.0 20.0 20.0 20.0 20.1 20.1 20.1 20.1 20.1 20.1 20.1 20.1 20.1 20.1 20.1 20.1 20.1 20.1 20.1 20.1 20.1 20.1 20.1 20.1 20.1 20.1 20.1 20.1 20.1 20.1 20.1 20.1 20.1 20.1 20.1 20.1 20.1 20.2 20.2 20.2 20.2 20.2 20.2 20.2 20.2 20.2 20.1 20.1 20.1 20.1 20.2 20.2 20.2 20.2 20.2 20.2 20.2 20.2 20.1 20.1 20.2 20.2 20.2 20.2 20.2 20.2 20.2 20.2 20.3 20.3 20.3 20.2 20.2 20.2 20.2 20.3 20.3 20.3 20.3 20.3 20.3 20.3 20.3 20.2 20.1 20.1 20.3 20.3 20.3 20.3 20.3 20.3 20.3 20.3 20.4 20.4 20.4 20.4 20.4 20.4 20.4 20.4 20.4 20.4 20.4 20.4 20.4 20.4 20.3 20.2 20.1 20.0 20.4 20.4 20.4 20.5 20.5 20.5 20.5 20.5 20.5 20.6 20.5 20.5 20.5 20.5 20.5 20.5 20.5 20.5 20.5 20.5 20.4 20.4 20.3 20.2 20.1 20.0 20.5 20.6 20.6 20.6 20.7 20.6 20.6 20.7 20.8 20.8 20.7 20.7 20.7 20.7 20.7 20.7 20.6 20.6 20.6 20.5 20.5 20.4 20.3 20.2 20.1 20.0 20.7 20.7 20.8 20.8 20.9 20.9 20.9 20.9 21.0 21.0 20.9 20.8 20.8 20.8 20.8 20.8 20.7 20.7 20.6 20.6 20.5 20.4 20.3 20.2 20.1 20.0 20.8 20.9 21.0 21.1 21.1 21.1 21.1 21.2 21.2 21.2 21.1 21.0 21.0 20.9 20.9 20.9 20.8 20.7 20.7 20.6 20.5 20.4 20.3 20.2 20.1 20.0 21.0 21.1 21.2 21.3 21.3 21.4 21.4 21.5 21.5 21.4 21.3 21.2 21.1 21.1 21.0 20.9 20.9 20.8 20.7 20.7 20.6 20.4 20.3 20.2 20.1 20.0 21.1 21.2 21.3 21.5 21.6 21.6 21.7 21.8 21.7 21.6 21.4 21.3 21.3 21.2 21.1 21.0 21.0 20.9 20.8 20.7 20.6 20.4 20.3 20.2 20.1 20.0 21.3 21.4 21.5 21.7 21.8 21.9 22.0 22.1 22.0 21.8 21.6 21.5 21.5 21.4 21.3 21.2 21.1 21.0 20.9 20.8 20.6 20.4 20.3 20.2 20.1 20.0 21.4 21.6 21.7 21.9 22.1 22.3 22.4 22.4 22.3 22.0 21.9 21.8 21.7 21.5 21.4 21.3 21.2 21.1 20.9 20.8 20.6 20.4 20.3 20.2 20.1 20.1 21.6 21.8 22.0 22.3 22.5 22.7 22.9 22.8 22.6 22.3 22.1 22.0 21.9 21.7 21.6 21.4 21.3 21.2 21.0 20.8 20.6 20.4 20.3 20.2 20.1 20.1 21.9 22.1 22.3 22.6 22.9 23.3 23.3 23.2 23.0 22.7 22.5 22.3 22.1 21.9 21.7 21.6 21.4 21.2 21.0 20.8 20.6 20.4 20.3 20.2 20.1 20.1 22.1 22.4 22.7 23.0 23.5 23.8 24.0 23.9 23.7 23.2 22.9 22.6 22.3 22.1 21.9 21.7 21.5 21.3 21.0 20.8 20.6 20.4 20.3 20.2 20.1 20.1 22.4 22.8 23.1 23.6 24.3 24.9 25.0 24.7 24.4 23.8 23.3 22.9 22.6 22.3 22.1 21.8 21.6 21.3 21.1 20.8 20.6 20.4 20.3 20.2 20.1 20.1 22.8 23.2 23.7 24.3 25.3 26.5 26.5 25.8 25.2 24.4 23.8 23.3 22.9 22.5 22.2 21.9 21.6 21.4 21.1 20.9 20.6 20.5 20.4 20.2 20.1 20.1 23.2 23.7 24.4 25.1 26.9 28.7 28.3 27.0 26.1 25.1 24.2 23.7 23.2 22.8 22.4 22.1 21.8 21.5 21.2 20.9 20.7 20.5 20.4 20.3 20.1 20.1 23.7 24.4 26.8 31.7 35.9 36.5 32.7 28.9 27.6 26.2 25.0 24.3 23.7 23.2 22.8 22.3 22.0 21.6 21.2 21.0 20.7 20.6 20.4 20.3 20.1 20.1 24.5 25.4 28.7 36.5 42.8 42.9 36.0 32.4 30.8 27.7 25.9 25.0 24.3 23.7 23.0 22.5 22.0 21.6 21.2 20.9 20.7 20.6 20.4 20.3 20.1 20.1 25.1 26.3 28.5 34.1 38.2 20.0 20.0 36.7 33.2 28.6 26.8 25.6 24.7 23.9 23.1 22.5 22.0 21.6 21.2 20.9 20.7 20.5 20.4 20.3 20.1 20.1 25.1 26.5 28.1 32.0 35.0 20.0 20.0 36.0 32.4 28.2 26.8 25.6 24.6 23.7 23.0 22.5 21.9 21.5 21.2 20.9 20.7 20.5 20.4 20.3 20.1 20.1 24.6 25.8 27.5 30.8 33.5 34.1 33.8 33.1 29.9 26.7 25.7 24.8 24.1 23.3 22.9 22.4 21.9 21.5 21.2 20.9 20.7 20.6 20.4 20.3 20.1 20.1 24.0 24.7 26.2 28.4 30.6 31.3 30.9 29.6 27.0 25.4 24.6 24.0 23.5 23.0 22.6 22.2 21.8 21.5 21.2 20.9 20.7 20.6 20.4 20.3 20.1 20.1 22.6 23.7 24.6 25.8 27.0 27.5 27.3 26.6 25.4 24.5 24.0 23.4 23.0 22.6 22.3 22.0 21.7 21.4 21.1 20.9 20.7 20.5 20.4 20.3 20.1 20.1 20.0 20.0 20.0 20.0 20.0 20.0 20.0 20.0 20.0 20.0 20.0 20.0 20.0 20.0 20.0 20.0 20.0 20.0 20.0 20.0 20.0 20.0 20.1 20.1 20.1 20.1 20.1 20.1 20.1 20.1 20.1 20.1 20.1 20.1 20.1 20.1 20.1 20.1 20.1 20.1 20.1 20.1 20.1 20.1 20.1 20.1 20.1 20.1 20.1 20.1 20.1 20.1 20.1 20.1 20.1 20.1 20.1 20.1 20.1 20.1 20.2 20.2 20.2 20.1 20.1 20.1 20.1 20.1 20.1 20.2 20.2 20.2 20.2 20.2 20.2 20.2 20.1 20.1 20.2 20.2 20.2 20.2 20.2 20.2 20.2 20.2 20.2 20.3 20.2 20.2 20.2 20.2 20.2 20.2 20.3 20.3 20.3 20.3 20.3 20.3 20.3 20.2 20.1 20.1 20.3 20.3 20.3 20.3 20.3 20.3 20.3 20.3 20.4 20.4 20.4 20.4 20.3 20.3 20.4 20.4 20.4 20.4 20.4 20.4 20.3 20.3 20.3 20.2 20.1 20.0 20.4 20.4 20.4 20.5 20.5 20.5 20.5 20.5 20.5 20.6 20.5 20.5 20.5 20.5 20.5 20.5 20.5 20.5 20.5 20.4 20.4 20.4 20.3 20.2 20.1 20.0 20.5 20.5 20.6 20.6 20.7 20.6 20.6 20.7 20.7 20.8 20.7 20.7 20.6 20.6 20.6 20.6 20.6 20.5 20.5 20.5 20.4 20.4 20.3 20.2 20.1 20.0 20.7 20.7 20.8 20.8 20.9 20.9 20.9 20.9 21.0 21.0 20.9 20.8 20.8 20.8 20.7 20.7 20.7 20.6 20.6 20.5 20.5 20.4 20.3 20.2 20.1 20.0 20.8 20.9 21.0 21.0 21.1 21.1 21.1 21.2 21.2 21.2 21.1 21.0 20.9 20.9 20.9 20.8 20.7 20.7 20.6 20.6 20.5 20.4 20.3 20.2 20.1 20.0 20.9 21.0 21.1 21.3 21.3 21.4 21.4 21.5 21.5 21.4 21.2 21.1 21.1 21.0 21.0 20.9 20.8 20.8 20.7 20.6 20.5 20.4 20.3 20.2 20.1 20.0 21.1 21.2 21.3 21.5 21.6 21.7 21.7 21.8 21.7 21.6 21.4 21.3 21.2 21.2 21.1 21.0 20.9 20.8 20.8 20.7 20.6 20.4 20.3 20.2 20.1 20.0 21.2 21.4 21.5 21.7 21.9 22.0 22.1 22.1 22.0 21.8 21.6 21.5 21.4 21.3 21.2 21.1 21.0 20.9 20.8 20.7 20.6 20.4 20.3 20.2 20.1 20.0 21.4 21.6 21.8 22.0 22.2 22.4 22.5 22.5 22.3 22.1 21.9 21.8 21.6 21.5 21.4 21.3 21.1 21.0 20.9 20.8 20.6 20.4 20.3 20.2 20.1 20.0 21.7 21.9 22.1 22.4 22.6 22.9 23.0 22.9 22.7 22.4 22.2 22.0 21.9 21.7 21.5 21.4 21.3 21.1 21.0 20.8 20.6 20.4 20.3 20.2 20.1 20.0 21.9 22.2 22.5 22.8 23.1 23.4 23.6 23.4 23.1 22.8 22.6 22.3 22.1 21.9 21.7 21.5 21.4 21.2 21.0 20.8 20.6 20.4 20.3 20.2 20.1 20.0 22.2 22.5 22.9 23.3 23.7 24.1 24.3 24.2 23.8 23.3 23.0 22.7 22.4 22.1 21.9 21.7 21.5 21.2 21.0 20.8 20.6 20.4 20.3 20.2 20.1 20.0 22.5 22.9 23.4 24.0 24.6 25.2 25.5 25.1 24.6 23.9 23.4 23.1 22.7 22.4 22.1 21.8 21.6 21.3 21.1 20.8 20.6 20.4 20.3 20.2 20.1 20.1 22.9 23.5 24.1 25.2 26.4 27.2 27.2 26.2 25.4 24.6 24.0 23.5 23.0 22.6 22.3 22.0 21.7 21.4 21.1 20.9 20.6 20.5 20.3 20.2 20.1 20.1 23.4 24.0 25.2 27.3 29.4 32.0 32.0 28.7 26.5 25.4 24.6 23.9 23.4 22.9 22.5 22.2 21.8 21.5 21.2 20.9 20.7 20.5 20.4 20.3 20.1 20.1 23.9 24.9 28.3 34.1 38.8 42.9 40.7 32.9 28.5 26.5 25.4 24.5 23.9 23.4 22.9 22.4 22.0 21.6 21.3 21.0 20.7 20.6 20.4 20.3 20.1 20.1 24.7 26.0 30.3 39.2 60.7 127.0 153.7 89.5 42.5 28.6 26.5 25.3 24.5 23.8 23.2 22.6 22.1 21.7 21.3 21.0 20.7 20.5 20.4 20.3 20.1 20.1 25.6 27.0 29.8 38.0 86.8 322.3 382.5 142.1 49.6 30.2 27.4 26.0 25.0 24.1 23.3 22.7 22.1 21.7 21.3 20.9 20.7 20.5 20.4 20.2 20.1 20.1 25.6 27.1 29.2 38.4 87.1 295.8 334.1 114.3 39.8 29.6 27.3 25.9 24.9 23.9 23.2 22.6 22.1 21.6 21.3 20.9 20.7 20.5 20.4 20.2 20.1 20.1 24.8 26.1 29.3 39.4 59.3 105.1 122.1 68.2 32.5 27.5 26.1 25.1 24.3 23.5 23.0 22.5 22.0 21.6 21.3 21.0 20.7 20.5 20.4 20.3 20.1 20.1 24.1 25.0 27.7 34.6 38.2 37.5 38.3 34.0 27.9 25.8 24.9 24.2 23.6 23.1 22.6 22.3 21.9 21.5 21.2 20.9 20.7 20.5 20.4 20.3 20.1 20.1 22.7 24.0 25.2 27.8 29.6 29.1 28.5 27.4 25.9 24.9 24.2 23.6 23.1 22.7 22.3 22.0 21.7 21.4 21.1 20.9 20.6 20.5 20.4 20.2 20.1 20.1 20.0 20.0 20.0 20.0 20.0 20.0 20.0 20.0 20.0 20.0 20.0 20.0 20.0 20.0 20.0 20.0 20.0 20.0 20.0 20.0 20.0 20.0 20.0 20.1 20.1 20.1 20.0 20.1 20.1 20.1 20.1 20.1 20.1 20.1 20.1 20.1 20.1 20.1 20.1 20.1 20.1 20.1 20.1 20.1 20.1 20.1 20.1 20.1 20.1 20.1 20.1 20.1 20.1 20.1 20.1 20.1 20.1 20.1 20.1 20.1 20.1 20.1 20.1 20.1 20.1 20.1 20.1 20.1 20.1 20.1 20.1 20.1 20.2 20.2 20.2 20.2 20.1 20.1 20.2 20.2 20.2 20.2 20.2 20.2 20.2 20.2 20.2 20.2 20.2 20.2 20.2 20.2 20.2 20.2 20.2 20.2 20.2 20.2 20.2 20.2 20.2 20.2 20.1 20.0 20.2 20.3 20.3 20.3 20.3 20.3 20.3 20.3 20.3 20.4 20.3 20.3 20.3 20.3 20.3 20.3 20.3 20.3 20.3 20.3 20.3 20.3 20.2 20.2 20.1 20.0 20.4 20.4 20.4 20.4 20.5 20.5 20.5 20.5 20.5 20.5 20.5 20.5 20.5 20.4 20.4 20.4 20.4 20.4 20.4 20.3 20.3 20.3 20.2 20.2 20.1 20.0 20.5 20.5 20.6 20.6 20.7 20.6 20.7 20.7 20.7 20.7 20.7 20.6 20.6 20.6 20.6 20.5 20.5 20.5 20.4 20.4 20.4 20.3 20.2 20.2 20.1 20.0 20.6 20.7 20.7 20.8 20.9 20.9 20.9 20.9 21.0 20.9 20.8 20.8 20.7 20.7 20.7 20.6 20.6 20.5 20.5 20.4 20.4 20.3 20.2 20.1 20.1 20.0 20.7 20.8 20.9 21.0 21.1 21.1 21.1 21.2 21.2 21.1 21.0 20.9 20.9 20.8 20.8 20.7 20.6 20.6 20.5 20.5 20.4 20.3 20.2 20.1 20.1 20.0 20.9 21.0 21.1 21.2 21.3 21.4 21.4 21.5 21.5 21.3 21.2 21.1 21.0 20.9 20.9 20.8 20.7 20.7 20.6 20.5 20.5 20.4 20.3 20.1 20.1 20.0 21.0 21.2 21.3 21.5 21.6 21.7 21.8 21.8 21.7 21.6 21.4 21.3 21.2 21.1 21.0 20.9 20.8 20.7 20.7 20.6 20.5 20.4 20.3 20.1 20.1 20.0 21.2 21.4 21.5 21.8 21.9 22.1 22.2 22.2 22.0 21.8 21.6 21.5 21.4 21.3 21.2 21.0 20.9 20.8 20.8 20.6 20.5 20.4 20.3 20.1 20.1 20.0 21.4 21.6 21.8 22.1 22.4 22.5 22.6 22.6 22.4 22.1 21.9 21.8 21.6 21.5 21.3 21.2 21.1 20.9 20.8 20.7 20.5 20.4 20.3 20.1 20.1 20.0 21.7 21.9 22.2 22.5 22.9 23.1 23.2 23.1 22.8 22.5 22.3 22.1 21.9 21.7 21.5 21.3 21.2 21.0 20.9 20.7 20.6 20.4 20.3 20.1 20.1 20.0 22.0 22.3 22.6 23.1 23.5 23.9 24.0 23.8 23.4 23.0 22.7 22.4 22.2 21.9 21.7 21.5 21.3 21.1 21.0 20.8 20.6 20.4 20.3 20.2 20.1 20.0 22.3 22.7 23.1 23.7 24.3 24.7 25.0 24.8 24.1 23.6 23.2 22.8 22.5 22.2 21.9 21.7 21.4 21.2 21.0 20.8 20.6 20.4 20.3 20.2 20.1 20.0 22.7 23.2 23.8 24.7 25.6 26.3 26.5 25.9 25.0 24.3 23.8 23.3 22.9 22.5 22.1 21.8 21.6 21.3 21.1 20.8 20.6 20.4 20.3 20.2 20.1 20.0 23.2 24.0 25.3 30.5 33.0 31.6 30.5 27.9 26.1 25.1 24.4 23.8 23.2 22.8 22.4 22.0 21.7 21.4 21.1 20.9 20.6 20.4 20.3 20.2 20.1 20.1 23.7 25.1 30.6 40.5 44.7 52.2 51.8 36.2 28.1 26.1 25.2 24.4 23.7 23.1 22.7 22.3 21.9 21.6 21.2 21.0 20.7 20.5 20.3 20.2 20.1 20.1 24.6 27.7 36.3 49.4 63.6 88.7 91.1 59.7 37.2 28.8 26.3 25.1 24.3 23.6 23.0 22.6 22.1 21.7 21.3 21.0 20.7 20.5 20.4 20.2 20.1 20.1 25.8 28.9 36.1 55.7 118.5 221.5 250.8 152.1 56.8 31.7 27.6 26.0 24.9 24.1 23.4 22.8 22.3 21.8 21.4 21.0 20.7 20.5 20.4 20.2 20.1 20.1 26.7 28.7 34.8 65.6 185.9 383.9 425.9 235.4 71.1 32.6 28.6 26.8 25.6 24.5 23.6 22.9 22.3 21.8 21.4 21.0 20.7 20.5 20.4 20.2 20.1 20.1 26.5 28.3 34.8 80.8 205.6 380.2 408.4 219.7 63.6 31.7 28.3 26.7 25.6 24.4 23.5 22.9 22.3 21.8 21.4 21.0 20.7 20.5 20.4 20.2 20.1 20.1 25.3 26.8 32.9 69.1 136.3 211.9 237.8 146.5 50.1 29.4 26.8 25.7 24.7 23.8 23.2 22.7 22.2 21.7 21.3 21.0 20.7 20.5 20.4 20.2 20.1 20.1 24.4 25.5 29.0 41.3 55.1 66.8 78.3 64.3 37.2 27.2 25.6 24.6 23.9 23.3 22.8 22.3 22.0 21.6 21.3 20.9 20.7 20.5 20.4 20.2 20.1 20.1 23.0 24.5 25.8 29.3 32.3 32.6 32.0 29.8 27.1 25.7 24.8 24.1 23.4 22.9 22.4 22.1 21.7 21.4 21.1 20.9 20.6 20.5 20.3 20.2 20.1 20.1 20.0 20.0 20.0 20.0 20.0 20.0 20.0 20.0 20.0 20.0 20.0 20.0 20.0 20.0 20.0 20.0 20.0 20.0 20.0 20.0 20.0 20.0 20.0 20.1 20.1 20.1 20.0 20.1 20.1 20.1 20.1 20.1 20.1 20.1 20.1 20.1 20.1 20.1 20.1 20.0 20.0 20.1 20.1 20.1 20.1 20.1 20.1 20.1 20.1 20.1 20.1 20.1 20.1 20.1 20.1 20.1 20.1 20.1 20.1 20.1 20.1 20.1 20.1 20.1 20.1 20.1 20.1 20.1 20.1 20.1 20.1 20.1 20.1 20.1 20.1 20.1 20.1 20.1 20.2 20.2 20.2 20.2 20.2 20.2 20.2 20.2 20.2 20.2 20.2 20.2 20.2 20.2 20.2 20.2 20.2 20.2 20.2 20.2 20.2 20.2 20.2 20.1 20.1 20.0 20.2 20.3 20.3 20.3 20.3 20.3 20.3 20.3 20.4 20.4 20.4 20.3 20.3 20.3 20.3 20.3 20.3 20.3 20.3 20.3 20.3 20.2 20.2 20.1 20.1 20.0 20.4 20.4 20.4 20.5 20.5 20.5 20.5 20.5 20.6 20.5 20.5 20.5 20.4 20.4 20.4 20.4 20.4 20.4 20.3 20.3 20.3 20.3 20.2 20.1 20.1 20.0 20.5 20.5 20.6 20.6 20.7 20.7 20.7 20.7 20.8 20.7 20.7 20.6 20.6 20.6 20.5 20.5 20.5 20.4 20.4 20.4 20.3 20.3 20.2 20.1 20.1 20.0 20.6 20.7 20.8 20.8 20.9 20.9 20.9 21.0 21.0 20.9 20.8 20.8 20.7 20.7 20.6 20.6 20.5 20.5 20.4 20.4 20.4 20.3 20.2 20.1 20.1 20.0 20.8 20.8 20.9 21.0 21.1 21.1 21.2 21.2 21.2 21.1 21.0 20.9 20.9 20.8 20.7 20.7 20.6 20.6 20.5 20.5 20.4 20.3 20.2 20.1 20.1 20.0 20.9 21.0 21.1 21.3 21.4 21.4 21.5 21.5 21.5 21.3 21.2 21.1 21.0 20.9 20.9 20.8 20.7 20.6 20.6 20.5 20.4 20.3 20.2 20.1 20.1 20.0 21.0 21.2 21.3 21.5 21.7 21.7 21.8 21.9 21.8 21.6 21.4 21.3 21.2 21.1 21.0 20.9 20.8 20.7 20.7 20.6 20.5 20.4 20.3 20.1 20.1 20.0 21.2 21.4 21.6 21.8 22.0 22.1 22.2 22.3 22.1 21.9 21.7 21.5 21.4 21.3 21.2 21.0 20.9 20.8 20.7 20.6 20.5 20.4 20.3 20.1 20.1 20.0 21.4 21.6 21.9 22.2 22.4 22.6 22.8 22.7 22.5 22.2 22.0 21.8 21.7 21.5 21.3 21.2 21.1 20.9 20.8 20.7 20.5 20.4 20.3 20.1 20.1 20.0 21.7 22.0 22.3 22.7 23.0 23.2 23.4 23.3 23.0 22.6 22.4 22.2 21.9 21.7 21.5 21.4 21.2 21.0 20.9 20.7 20.6 20.4 20.3 20.1 20.1 20.0 22.0 22.3 22.7 23.2 23.7 24.0 24.2 24.0 23.6 23.2 22.8 22.5 22.3 22.0 21.8 21.5 21.3 21.1 21.0 20.8 20.6 20.4 20.3 20.2 20.1 20.0 22.4 23.0 23.5 24.0 24.5 25.0 25.4 25.1 24.4 23.8 23.4 23.0 22.6 22.3 22.0 21.7 21.5 21.2 21.0 20.8 20.6 20.4 20.3 20.2 20.1 20.0 22.8 23.7 25.2 26.2 26.6 27.6 27.6 26.4 25.4 24.6 24.0 23.5 23.0 22.6 22.2 21.9 21.6 21.3 21.1 20.9 20.6 20.4 20.3 20.2 20.1 20.0 23.4 24.8 32.5 39.7 37.8 35.1 33.3 29.8 27.1 25.7 24.8 24.1 23.5 22.9 22.5 22.1 21.8 21.5 21.2 20.9 20.7 20.5 20.3 20.2 20.1 20.1 25.3 31.6 52.3 68.8 62.1 61.7 60.7 43.1 30.4 27.0 25.7 24.8 24.0 23.4 22.8 22.4 22.0 21.6 21.3 21.0 20.7 20.5 20.4 20.2 20.1 20.1 28.1 42.4 69.2 93.6 100.3 129.8 149.1 109.4 59.5 32.6 27.1 25.7 24.6 23.9 23.2 22.7 22.2 21.8 21.4 21.1 20.8 20.6 20.4 20.2 20.1 20.1 31.6 42.9 66.2 116.9 192.6 278.7 311.5 207.7 81.5 38.5 29.3 26.8 25.4 24.5 23.7 23.0 22.5 22.0 21.5 21.1 20.8 20.5 20.4 20.2 20.1 20.1 32.7 36.6 64.0 153.9 303.8 430.3 455.6 296.4 100.2 39.7 30.6 27.7 26.2 25.0 24.0 23.2 22.5 22.0 21.5 21.1 20.8 20.5 20.4 20.2 20.1 20.1 30.9 36.2 75.0 187.2 337.8 447.6 467.0 304.9 103.2 38.9 30.2 27.5 26.1 24.9 23.9 23.1 22.5 22.0 21.5 21.1 20.8 20.5 20.4 20.2 20.1 20.1 28.0 33.4 66.9 148.5 234.1 286.9 301.3 198.5 69.6 34.0 28.2 26.2 25.1 24.2 23.4 22.8 22.3 21.9 21.4 21.1 20.8 20.5 20.4 20.2 20.1 20.1 25.1 27.7 40.3 66.0 89.7 100.1 105.3 82.1 43.0 28.6 26.2 25.2 24.3 23.5 23.0 22.5 22.1 21.7 21.3 21.0 20.7 20.5 20.4 20.2 20.1 20.1 23.3 25.6 27.2 30.6 34.7 35.5 34.4 31.7 28.3 26.4 25.3 24.5 23.7 23.1 22.6 22.2 21.8 21.5 21.2 20.9 20.7 20.5 20.3 20.2 20.1 20.1 20.0 20.0 20.0 20.0 20.0 20.0 20.0 20.0 20.0 20.0 20.0 20.0 20.0 20.0 20.0 20.0 20.0 20.0 20.0 20.0 20.0 20.0 20.1 20.1 20.1 20.1 20.1 20.1 20.1 20.1 20.1 20.1 20.1 20.1 20.1 20.1 20.1 20.1 20.1 20.1 20.1 20.1 20.1 20.1 20.1 20.1 20.1 20.1 20.1 20.1 20.1 20.1 20.1 20.1 20.1 20.1 20.1 20.1 20.1 20.1 20.2 20.2 20.1 20.1 20.1 20.1 20.1 20.1 20.1 20.1 20.2 20.2 20.2 20.2 20.2 20.1 20.1 20.1 20.2 20.2 20.2 20.2 20.2 20.2 20.2 20.2 20.3 20.3 20.3 20.2 20.2 20.2 20.2 20.2 20.3 20.3 20.2 20.2 20.2 20.2 20.2 20.2 20.1 20.1 20.3 20.3 20.3 20.4 20.4 20.4 20.4 20.4 20.4 20.4 20.4 20.4 20.4 20.4 20.4 20.4 20.4 20.3 20.3 20.3 20.3 20.3 20.2 20.2 20.1 20.0 20.4 20.4 20.5 20.5 20.5 20.5 20.5 20.6 20.6 20.6 20.6 20.5 20.5 20.5 20.5 20.5 20.5 20.4 20.4 20.4 20.3 20.3 20.2 20.2 20.1 20.0 20.5 20.6 20.7 20.7 20.7 20.7 20.8 20.8 20.8 20.8 20.7 20.7 20.6 20.6 20.6 20.6 20.5 20.5 20.4 20.4 20.4 20.3 20.3 20.2 20.1 20.0 20.7 20.7 20.8 20.9 21.0 21.0 21.0 21.1 21.1 21.0 20.9 20.8 20.8 20.8 20.7 20.7 20.6 20.6 20.5 20.4 20.4 20.3 20.3 20.2 20.1 20.0 20.8 20.9 21.0 21.1 21.2 21.2 21.3 21.3 21.3 21.2 21.1 21.0 20.9 20.9 20.8 20.8 20.7 20.6 20.6 20.5 20.4 20.4 20.3 20.2 20.1 20.0 20.9 21.1 21.2 21.3 21.4 21.5 21.6 21.6 21.6 21.4 21.3 21.2 21.1 21.0 21.0 20.9 20.8 20.7 20.6 20.6 20.5 20.4 20.3 20.2 20.1 20.0 21.1 21.2 21.4 21.6 21.7 21.8 21.9 22.0 21.9 21.7 21.5 21.4 21.3 21.2 21.1 21.0 20.9 20.8 20.7 20.6 20.5 20.4 20.3 20.2 20.1 20.0 21.3 21.4 21.6 21.9 22.0 22.1 22.3 22.4 22.2 22.0 21.8 21.6 21.5 21.4 21.3 21.1 21.0 20.9 20.8 20.7 20.6 20.4 20.3 20.2 20.1 20.0 21.5 21.7 21.9 22.2 22.4 22.6 22.8 22.8 22.6 22.3 22.1 21.9 21.8 21.6 21.5 21.3 21.2 21.0 20.9 20.8 20.6 20.5 20.3 20.2 20.1 20.0 21.7 22.0 22.3 22.6 22.9 23.1 23.4 23.4 23.1 22.7 22.5 22.3 22.1 21.9 21.7 21.5 21.3 21.1 21.0 20.8 20.6 20.5 20.3 20.2 20.1 20.0 22.0 22.4 22.8 23.1 23.5 23.7 24.1 24.1 23.7 23.3 22.9 22.7 22.4 22.1 21.9 21.7 21.4 21.2 21.1 20.9 20.7 20.5 20.3 20.2 20.1 20.0 22.6 24.1 24.6 24.2 24.3 24.7 25.3 25.2 24.5 23.9 23.5 23.1 22.8 22.4 22.1 21.8 21.6 21.4 21.1 20.9 20.7 20.5 20.3 20.2 20.1 20.0 23.3 26.6 28.5 27.3 26.5 27.4 27.9 26.7 25.5 24.8 24.1 23.6 23.2 22.8 22.4 22.0 21.7 21.5 21.2 21.0 20.7 20.5 20.3 20.2 20.1 20.1 24.9 33.0 43.0 42.8 34.0 31.0 31.9 29.9 27.4 25.9 25.0 24.2 23.6 23.1 22.6 22.3 21.9 21.6 21.3 21.0 20.8 20.6 20.4 20.2 20.1 20.1 33.5 59.1 87.4 88.9 58.0 41.9 46.4 40.4 31.5 27.5 25.9 25.0 24.2 23.5 23.0 22.5 22.1 21.8 21.5 21.2 20.9 20.6 20.4 20.3 20.1 20.1 41.4 84.9 129.3 138.4 95.5 100.9 142.4 118.2 66.9 34.0 27.5 26.0 24.8 24.1 23.4 22.9 22.4 22.0 21.6 21.2 20.9 20.6 20.4 20.3 20.1 20.1 43.0 84.8 141.3 189.5 169.1 214.6 302.7 231.8 115.1 54.8 34.3 27.3 25.8 24.8 23.9 23.2 22.6 22.1 21.7 21.3 20.9 20.6 20.4 20.3 20.1 20.1 41.3 69.7 145.1 251.2 254.8 310.4 416.6 317.0 152.4 65.7 36.8 28.3 26.6 25.3 24.2 23.4 22.7 22.2 21.7 21.3 20.9 20.6 20.4 20.3 20.1 20.1 36.5 59.8 153.7 286.0 279.9 307.4 399.6 297.1 136.8 57.9 32.8 27.9 26.4 25.1 24.1 23.4 22.7 22.2 21.7 21.3 20.9 20.6 20.4 20.2 20.1 20.1 32.0 57.7 142.0 244.2 231.3 206.8 230.8 159.4 72.7 43.0 29.6 26.5 25.4 24.4 23.7 23.0 22.5 22.0 21.6 21.2 20.9 20.6 20.4 20.3 20.1 20.1 27.9 47.6 91.0 133.2 128.1 95.4 77.8 58.3 37.8 29.4 26.5 25.4 24.5 23.8 23.2 22.7 22.2 21.9 21.5 21.2 20.9 20.6 20.4 20.3 20.1 20.1 24.1 32.9 43.4 51.0 49.5 40.1 34.4 31.3 28.7 26.8 25.5 24.7 24.0 23.3 22.8 22.4 22.0 21.7 21.4 21.1 20.8 20.6 20.4 20.2 20.1 20.1 20.0 20.0 20.0 20.0 20.0 20.0 20.0 20.0 20.0 20.0 20.0 20.0 20.0 20.0 20.0 20.0 20.0 20.0 20.0 20.0 20.0 20.1 20.1 20.1 20.1 20.1 20.1 20.1 20.1 20.1 20.1 20.1 20.1 20.1 20.1 20.1 20.1 20.1 20.1 20.1 20.1 20.1 20.1 20.1 20.1 20.1 20.1 20.1 20.1 20.1 20.1 20.1 20.1 20.1 20.1 20.2 20.1 20.1 20.1 20.2 20.2 20.2 20.2 20.2 20.2 20.2 20.2 20.2 20.2 20.2 20.2 20.2 20.2 20.2 20.2 20.2 20.1 20.1 20.2 20.2 20.2 20.3 20.3 20.2 20.2 20.3 20.3 20.3 20.3 20.3 20.3 20.3 20.3 20.3 20.3 20.3 20.3 20.3 20.3 20.3 20.2 20.2 20.1 20.1 20.3 20.4 20.4 20.4 20.4 20.4 20.4 20.4 20.5 20.5 20.5 20.4 20.4 20.4 20.4 20.4 20.4 20.4 20.4 20.4 20.3 20.3 20.3 20.2 20.1 20.1 20.5 20.5 20.6 20.6 20.6 20.6 20.6 20.7 20.7 20.7 20.7 20.6 20.6 20.6 20.6 20.6 20.5 20.5 20.5 20.4 20.4 20.3 20.3 20.2 20.1 20.0 20.6 20.7 20.7 20.8 20.8 20.8 20.8 20.9 20.9 20.9 20.8 20.8 20.7 20.7 20.7 20.7 20.6 20.6 20.5 20.5 20.4 20.4 20.3 20.2 20.1 20.0 20.7 20.8 20.9 21.0 21.0 21.0 21.1 21.2 21.2 21.1 21.0 20.9 20.9 20.8 20.8 20.8 20.7 20.6 20.6 20.5 20.5 20.4 20.3 20.2 20.1 20.0 20.9 21.0 21.1 21.2 21.2 21.3 21.4 21.4 21.4 21.3 21.2 21.1 21.0 21.0 20.9 20.9 20.8 20.7 20.7 20.6 20.5 20.4 20.3 20.2 20.1 20.0 21.0 21.1 21.3 21.4 21.5 21.5 21.6 21.7 21.7 21.5 21.4 21.2 21.2 21.1 21.1 21.0 20.9 20.8 20.7 20.7 20.6 20.5 20.3 20.2 20.1 20.0 21.1 21.3 21.5 21.6 21.7 21.8 22.0 22.0 21.9 21.7 21.6 21.5 21.4 21.3 21.2 21.1 21.0 20.9 20.8 20.7 20.6 20.5 20.4 20.2 20.1 20.0 21.3 21.5 21.7 21.9 22.0 22.1 22.3 22.4 22.3 22.0 21.8 21.7 21.6 21.5 21.4 21.2 21.1 21.0 20.9 20.8 20.7 20.5 20.4 20.2 20.1 20.1 21.5 21.7 22.0 22.2 22.4 22.6 22.8 22.9 22.6 22.3 22.1 22.0 21.9 21.7 21.6 21.4 21.3 21.1 21.0 20.9 20.7 20.6 20.4 20.2 20.1 20.1 21.7 22.0 22.3 22.5 22.8 23.0 23.4 23.4 23.1 22.8 22.5 22.3 22.1 22.0 21.8 21.6 21.4 21.3 21.1 20.9 20.8 20.6 20.4 20.2 20.1 20.1 22.0 22.4 22.8 23.0 23.2 23.5 23.9 24.0 23.7 23.3 23.0 22.7 22.5 22.2 22.0 21.8 21.6 21.4 21.2 21.0 20.8 20.6 20.4 20.2 20.1 20.1 22.6 24.3 25.0 24.1 24.0 24.4 25.0 25.0 24.4 23.9 23.5 23.1 22.8 22.5 22.2 22.0 21.7 21.5 21.3 21.0 20.8 20.6 20.4 20.2 20.1 20.1 24.0 28.6 30.4 27.5 25.7 26.2 27.2 26.6 25.4 24.7 24.1 23.7 23.2 22.8 22.5 22.1 21.9 21.6 21.4 21.1 20.8 20.6 20.4 20.2 20.1 20.1 28.9 41.4 47.0 37.6 28.1 27.0 29.1 28.5 27.1 25.6 24.8 24.3 23.7 23.2 22.7 22.4 22.0 21.8 21.5 21.2 20.9 20.7 20.4 20.3 20.1 20.1 47.8 88.0 107.3 76.9 37.4 30.3 35.0 33.4 30.1 27.2 25.7 24.9 24.2 23.6 23.1 22.7 22.3 22.0 21.6 21.3 21.0 20.7 20.5 20.3 20.2 20.1 71.9 138.0 171.5 123.8 57.2 63.6 87.5 73.5 48.8 32.8 27.4 25.9 24.9 24.2 23.6 23.0 22.6 22.2 21.8 21.4 21.1 20.8 20.5 20.3 20.2 20.1 79.8 149.2 204.1 166.8 98.3 143.7 205.2 173.9 118.9 71.3 38.6 27.3 25.8 24.9 24.1 23.4 22.8 22.3 21.9 21.5 21.1 20.7 20.5 20.3 20.2 20.1 69.5 129.8 216.3 212.8 153.7 237.5 331.3 287.6 192.6 98.4 42.1 28.4 26.5 25.4 24.4 23.6 22.9 22.4 21.9 21.5 21.1 20.7 20.5 20.3 20.1 20.1 52.3 100.7 208.7 233.3 161.4 222.4 306.4 257.8 166.9 83.4 34.7 28.0 26.2 25.1 24.3 23.5 22.9 22.3 21.9 21.4 21.0 20.7 20.5 20.3 20.1 20.1 39.6 86.8 191.3 237.3 160.2 127.4 144.8 114.5 81.9 54.9 31.0 26.7 25.3 24.5 23.9 23.2 22.7 22.2 21.8 21.4 21.1 20.7 20.5 20.3 20.2 20.1 30.6 67.0 133.3 174.3 132.5 72.0 50.8 41.5 36.6 31.3 27.5 25.4 24.6 23.9 23.3 22.8 22.4 22.1 21.7 21.3 21.0 20.7 20.5 20.3 20.2 20.1 24.3 38.0 58.9 70.8 60.2 41.8 33.6 30.4 28.8 27.3 25.8 24.7 24.0 23.4 22.9 22.5 22.2 21.8 21.5 21.2 20.9 20.7 20.4 20.3 20.1 20.1 20.0 20.0 20.0 20.0 20.0 20.0 20.0 20.0 20.0 20.1 20.1 20.0 20.0 20.0 20.0 20.0 20.0 20.0 20.0 20.1 20.1 20.1 20.1 20.1 20.1 20.1 20.1 20.1 20.1 20.1 20.1 20.1 20.1 20.1 20.1 20.1 20.1 20.1 20.1 20.1 20.1 20.1 20.1 20.1 20.1 20.1 20.1 20.1 20.1 20.2 20.1 20.1 20.1 20.1 20.2 20.2 20.2 20.1 20.1 20.2 20.2 20.2 20.2 20.2 20.2 20.2 20.2 20.2 20.2 20.2 20.2 20.2 20.2 20.3 20.3 20.2 20.2 20.1 20.2 20.2 20.3 20.3 20.3 20.3 20.3 20.3 20.3 20.4 20.3 20.3 20.3 20.3 20.3 20.4 20.4 20.4 20.4 20.4 20.3 20.3 20.3 20.3 20.2 20.1 20.3 20.4 20.4 20.4 20.4 20.4 20.4 20.5 20.5 20.6 20.5 20.5 20.5 20.5 20.5 20.5 20.5 20.5 20.5 20.4 20.4 20.4 20.3 20.3 20.1 20.1 20.5 20.5 20.6 20.6 20.6 20.6 20.6 20.7 20.8 20.8 20.7 20.7 20.6 20.6 20.6 20.6 20.6 20.6 20.5 20.5 20.5 20.4 20.4 20.3 20.1 20.1 20.6 20.7 20.8 20.8 20.8 20.8 20.9 21.0 21.0 21.0 20.9 20.8 20.8 20.8 20.8 20.7 20.7 20.6 20.6 20.5 20.5 20.5 20.4 20.3 20.1 20.1 20.8 20.9 21.0 21.0 21.0 21.0 21.1 21.2 21.3 21.2 21.1 21.0 20.9 20.9 20.9 20.8 20.8 20.7 20.7 20.6 20.6 20.5 20.4 20.3 20.1 20.1 20.9 21.0 21.1 21.2 21.2 21.3 21.4 21.5 21.5 21.4 21.2 21.1 21.1 21.0 21.0 20.9 20.9 20.8 20.7 20.7 20.6 20.5 20.4 20.3 20.1 20.1 21.0 21.1 21.3 21.4 21.4 21.5 21.6 21.7 21.7 21.5 21.4 21.3 21.2 21.2 21.1 21.0 21.0 20.9 20.8 20.7 20.7 20.6 20.4 20.3 20.1 20.1 21.1 21.3 21.4 21.6 21.7 21.8 21.9 22.0 21.9 21.7 21.6 21.5 21.4 21.3 21.2 21.2 21.1 21.0 20.9 20.8 20.7 20.6 20.4 20.3 20.1 20.1 21.3 21.4 21.6 21.8 21.9 22.1 22.3 22.4 22.2 22.0 21.8 21.7 21.6 21.5 21.4 21.3 21.2 21.1 21.0 20.9 20.8 20.6 20.4 20.3 20.1 20.1 21.4 21.7 21.9 22.1 22.3 22.5 22.7 22.8 22.6 22.3 22.1 22.0 21.8 21.7 21.6 21.4 21.3 21.2 21.1 21.0 20.8 20.6 20.4 20.3 20.1 20.1 21.6 21.9 22.2 22.4 22.6 23.0 23.3 23.3 23.0 22.7 22.5 22.3 22.1 21.9 21.8 21.6 21.5 21.3 21.2 21.0 20.8 20.6 20.4 20.3 20.1 20.1 21.9 22.3 22.6 22.8 23.0 23.4 23.8 23.9 23.5 23.2 22.9 22.7 22.4 22.2 22.0 21.8 21.6 21.4 21.3 21.1 20.9 20.7 20.4 20.2 20.1 20.1 22.4 23.3 23.9 23.7 23.7 24.2 24.8 24.8 24.2 23.7 23.4 23.1 22.8 22.5 22.2 22.0 21.7 21.5 21.3 21.1 20.9 20.7 20.4 20.3 20.1 20.1 24.6 27.1 28.7 26.9 25.2 25.3 26.1 25.9 25.2 24.5 24.0 23.6 23.1 22.8 22.4 22.1 21.9 21.6 21.4 21.2 20.9 20.7 20.5 20.3 20.1 20.1 34.4 40.8 41.1 30.0 25.7 26.3 26.9 27.2 26.4 25.3 24.6 24.1 23.6 23.1 22.7 22.4 22.1 21.8 21.6 21.3 21.0 20.7 20.5 20.3 20.2 20.1 66.7 96.9 88.1 43.7 27.8 29.7 29.1 29.3 28.2 26.5 25.4 24.7 24.1 23.5 23.1 22.7 22.3 22.0 21.7 21.4 21.1 20.8 20.5 20.3 20.2 20.1 118.3 168.7 142.1 66.0 45.3 50.9 45.5 40.4 35.5 31.4 27.7 26.0 24.8 24.1 23.6 23.1 22.6 22.3 21.9 21.6 21.2 20.9 20.6 20.3 20.2 20.1 142.8 196.5 168.1 89.0 89.5 119.3 112.9 105.0 99.9 71.1 37.3 27.5 25.6 24.8 24.1 23.4 22.9 22.4 22.0 21.6 21.2 20.8 20.5 20.3 20.2 20.1 112.0 173.2 171.1 115.0 151.0 216.3 219.5 222.1 191.4 105.2 41.2 28.6 26.3 25.2 24.4 23.6 22.9 22.4 22.0 21.6 21.2 20.8 20.5 20.3 20.1 20.1 69.3 126.4 154.6 119.5 147.1 205.1 215.1 221.5 179.3 93.3 37.2 28.9 26.1 25.0 24.3 23.6 22.9 22.4 22.0 21.6 21.2 20.8 20.5 20.3 20.1 20.1 44.5 85.8 142.2 154.0 132.8 114.5 106.6 103.1 88.5 61.1 35.2 27.5 25.3 24.4 23.9 23.3 22.8 22.3 22.0 21.6 21.2 20.8 20.5 20.3 20.2 20.1 30.0 53.8 105.8 142.7 111.1 62.8 45.7 39.7 36.8 34.2 30.1 25.6 24.5 23.9 23.3 22.9 22.5 22.2 21.8 21.5 21.1 20.8 20.5 20.3 20.2 20.1 23.9 32.8 50.3 59.3 48.6 36.6 32.2 30.1 28.8 27.5 26.0 24.5 23.9 23.3 22.9 22.5 22.2 21.9 21.6 21.3 21.0 20.8 20.5 20.3 20.2 20.1 20.0 20.0 20.0 20.0 20.0 20.0 20.0 20.0 20.0 20.1 20.1 20.0 20.0 20.0 20.0 20.0 20.1 20.1 20.1 20.1 20.1 20.1 20.1 20.1 20.2 20.2 20.1 20.1 20.1 20.1 20.1 20.1 20.1 20.1 20.1 20.1 20.1 20.1 20.1 20.1 20.1 20.1 20.1 20.1 20.1 20.1 20.1 20.2 20.2 20.2 20.2 20.2 20.1 20.1 20.1 20.1 20.1 20.1 20.1 20.2 20.2 20.2 20.2 20.2 20.2 20.2 20.2 20.2 20.2 20.3 20.3 20.3 20.3 20.3 20.3 20.3 20.2 20.1 20.2 20.2 20.3 20.3 20.3 20.3 20.3 20.3 20.3 20.4 20.4 20.4 20.3 20.3 20.4 20.4 20.4 20.4 20.4 20.4 20.4 20.4 20.4 20.3 20.2 20.1 20.4 20.4 20.4 20.4 20.4 20.4 20.4 20.5 20.6 20.6 20.6 20.5 20.5 20.5 20.5 20.5 20.5 20.5 20.5 20.5 20.4 20.4 20.4 20.3 20.2 20.1 20.5 20.5 20.6 20.6 20.6 20.6 20.6 20.7 20.8 20.8 20.8 20.7 20.7 20.7 20.7 20.7 20.6 20.6 20.6 20.5 20.5 20.5 20.4 20.3 20.2 20.1 20.6 20.7 20.8 20.8 20.8 20.8 20.9 21.0 21.0 21.0 20.9 20.8 20.8 20.8 20.8 20.7 20.7 20.7 20.6 20.6 20.5 20.5 20.4 20.3 20.1 20.1 20.8 20.9 20.9 21.0 21.0 21.0 21.1 21.2 21.2 21.2 21.1 21.0 20.9 20.9 20.8 20.8 20.8 20.7 20.7 20.6 20.6 20.5 20.4 20.3 20.1 20.1 20.9 21.0 21.1 21.2 21.2 21.2 21.3 21.4 21.4 21.3 21.2 21.1 21.0 21.0 20.9 20.9 20.8 20.8 20.7 20.7 20.6 20.6 20.5 20.3 20.1 20.1 21.0 21.1 21.2 21.3 21.4 21.4 21.6 21.7 21.6 21.5 21.3 21.2 21.2 21.1 21.1 21.0 20.9 20.9 20.8 20.8 20.7 20.6 20.5 20.3 20.1 20.1 21.1 21.2 21.4 21.5 21.6 21.7 21.9 22.0 21.9 21.7 21.5 21.4 21.3 21.3 21.2 21.1 21.0 21.0 20.9 20.8 20.8 20.6 20.5 20.3 20.1 20.1 21.2 21.4 21.5 21.7 21.8 22.0 22.2 22.3 22.1 21.9 21.7 21.6 21.5 21.4 21.3 21.2 21.1 21.1 21.0 20.9 20.8 20.7 20.5 20.3 20.1 20.1 21.3 21.6 21.8 21.9 22.2 22.4 22.6 22.7 22.5 22.2 22.0 21.9 21.8 21.6 21.5 21.4 21.3 21.2 21.1 21.0 20.9 20.7 20.5 20.3 20.1 20.1 21.5 21.8 22.0 22.2 22.5 22.9 23.1 23.1 22.8 22.5 22.3 22.2 22.0 21.8 21.7 21.5 21.4 21.3 21.2 21.0 20.9 20.7 20.5 20.3 20.1 20.1 21.8 22.1 22.4 22.5 22.8 23.2 23.7 23.7 23.3 23.0 22.7 22.5 22.3 22.1 21.9 21.7 21.5 21.4 21.2 21.1 20.9 20.7 20.5 20.3 20.1 20.1 22.2 22.7 23.1 23.1 23.3 23.9 24.4 24.4 24.0 23.5 23.2 22.9 22.6 22.3 22.1 21.8 21.6 21.5 21.3 21.1 20.9 20.7 20.5 20.3 20.1 20.1 24.7 24.8 25.5 24.9 24.5 24.7 25.2 25.2 24.7 24.2 23.8 23.4 23.0 22.6 22.3 22.0 21.8 21.6 21.4 21.2 21.0 20.7 20.5 20.3 20.1 20.1 39.0 34.3 30.4 25.6 25.6 25.2 25.7 26.1 25.6 24.9 24.4 23.9 23.4 22.9 22.6 22.2 22.0 21.8 21.6 21.3 21.1 20.8 20.5 20.3 20.2 20.1 74.6 69.6 47.8 26.9 29.0 27.7 27.5 28.2 27.6 26.8 25.9 24.7 24.0 23.4 23.0 22.6 22.3 22.0 21.8 21.5 21.2 20.9 20.6 20.3 20.2 20.1 134.2 131.0 76.5 37.7 45.8 42.1 37.0 34.6 33.4 32.9 32.3 28.9 24.9 24.0 23.5 23.0 22.6 22.2 21.9 21.6 21.3 20.9 20.6 20.3 20.2 20.1 162.2 172.2 100.9 54.3 75.0 79.8 76.0 74.7 80.8 62.5 40.5 32.1 26.3 24.6 23.9 23.3 22.8 22.4 22.0 21.6 21.2 20.9 20.5 20.3 20.2 20.1 114.9 146.7 104.6 84.8 119.8 126.7 132.2 160.8 165.4 95.8 43.5 32.5 27.0 25.0 24.2 23.5 22.9 22.4 22.0 21.6 21.2 20.8 20.5 20.3 20.1 20.1 61.7 95.3 89.1 96.4 128.5 120.5 128.8 170.6 166.2 93.6 45.1 33.0 26.6 24.8 24.1 23.5 22.9 22.4 22.0 21.6 21.2 20.8 20.5 20.3 20.1 20.1 39.4 57.6 74.7 100.9 112.2 85.9 77.7 88.4 86.3 65.0 42.3 30.1 25.6 24.4 23.7 23.3 22.8 22.3 22.0 21.6 21.2 20.9 20.6 20.3 20.2 20.1 28.3 34.4 56.0 82.7 79.2 57.6 44.6 41.1 41.7 39.2 32.3 26.0 24.5 23.8 23.2 22.8 22.5 22.2 21.9 21.6 21.2 20.9 20.6 20.3 20.2 20.1 23.9 27.6 34.6 38.3 35.1 32.5 31.4 31.8 32.1 29.0 25.7 24.4 23.7 23.1 22.7 22.4 22.1 21.9 21.7 21.4 21.1 20.8 20.5 20.3 20.2 20.1 20.0 20.0 20.0 20.0 20.0 20.0 20.0 20.0 20.0 20.0 20.0 20.0 20.0 20.0 20.0 20.0 20.1 20.1 20.1 20.1 20.1 20.1 20.1 20.1 20.2 20.2 20.1 20.1 20.1 20.1 20.1 20.1 20.1 20.1 20.1 20.1 20.1 20.1 20.1 20.1 20.1 20.1 20.1 20.1 20.1 20.2 20.2 20.2 20.2 20.2 20.2 20.2 20.1 20.1 20.1 20.1 20.1 20.1 20.1 20.1 20.2 20.2 20.2 20.2 20.2 20.2 20.2 20.2 20.3 20.3 20.3 20.3 20.3 20.3 20.3 20.3 20.2 20.1 20.2 20.2 20.2 20.3 20.3 20.2 20.3 20.3 20.3 20.4 20.4 20.4 20.3 20.4 20.4 20.4 20.4 20.4 20.4 20.4 20.4 20.4 20.4 20.3 20.2 20.1 20.3 20.4 20.4 20.4 20.4 20.4 20.4 20.5 20.6 20.6 20.6 20.5 20.5 20.5 20.5 20.5 20.5 20.5 20.5 20.5 20.4 20.4 20.4 20.3 20.2 20.1 20.5 20.5 20.6 20.6 20.6 20.6 20.6 20.7 20.8 20.8 20.8 20.7 20.6 20.6 20.6 20.6 20.6 20.6 20.5 20.5 20.5 20.5 20.4 20.3 20.2 20.1 20.6 20.7 20.7 20.8 20.8 20.8 20.8 20.9 21.0 21.0 20.9 20.8 20.8 20.7 20.7 20.7 20.7 20.6 20.6 20.6 20.5 20.5 20.4 20.3 20.2 20.1 20.7 20.8 20.9 20.9 20.9 21.0 21.0 21.1 21.2 21.1 21.0 20.9 20.9 20.8 20.8 20.8 20.7 20.7 20.6 20.6 20.6 20.5 20.5 20.3 20.2 20.1 20.8 20.9 21.0 21.1 21.1 21.1 21.2 21.3 21.4 21.3 21.1 21.0 21.0 20.9 20.9 20.8 20.8 20.8 20.7 20.7 20.6 20.6 20.5 20.3 20.1 20.1 20.9 21.0 21.1 21.2 21.3 21.3 21.5 21.5 21.5 21.4 21.2 21.1 21.1 21.0 21.0 20.9 20.9 20.8 20.8 20.7 20.7 20.6 20.5 20.3 20.1 20.1 21.0 21.1 21.2 21.4 21.4 21.6 21.7 21.8 21.8 21.6 21.4 21.3 21.2 21.2 21.1 21.0 21.0 20.9 20.8 20.8 20.7 20.6 20.5 20.3 20.1 20.1 21.1 21.3 21.4 21.5 21.7 21.9 22.0 22.1 22.0 21.8 21.6 21.5 21.4 21.3 21.2 21.2 21.1 21.0 20.9 20.9 20.8 20.7 20.5 20.3 20.1 20.1 21.3 21.5 21.6 21.8 22.0 22.2 22.4 22.5 22.3 22.1 21.9 21.7 21.6 21.5 21.4 21.3 21.2 21.1 21.0 20.9 20.8 20.7 20.5 20.3 20.1 20.1 21.4 21.6 21.8 22.0 22.3 22.7 23.0 22.9 22.7 22.4 22.2 22.0 21.9 21.7 21.6 21.4 21.3 21.2 21.1 21.0 20.9 20.7 20.5 20.3 20.