<?xml version="1.0"?>
<VTKFile type="PolyData" version="1.0" byte_order="LittleEndian" header_type="UInt64">
<PolyData>
<Piece NumberOfPoints="194" NumberOfVerts="0" NumberOfLines="0" NumberOfPolys="0">
    <Points>
        <DataArray type="Float32" NumberOfComponents="3" format="ascii">
        14.7163 9.7528 2.3778 14.6649 10.1258 2.1267 14.1896 8.7038 4.2876 14.4784 8.2980 2.5280 14.4596 7.5673 4.7970 14.4357 10.2612 3.3625 14.2678 7.6167 5.0807 14.7191 9.5490 3.0535 14.4381 10.5761 2.9027 14.6373 10.6527 4.1502 14.8183 7.2974 7.8872 14.6639 9.7549 2.7000 14.7616 7.0578 4.7328 14.4433 10.5594 2.9783 14.5212 7.2678 3.9977 8.0224 8.9204 7.7719 14.7982 7.4511 3.8705 12.5495 3.5900 7.0333 14.5881 8.9183 3.0526 13.2663 4.8908 5.2584 14.7782 8.9674 3.0515 14.6922 6.4028 4.9548 14.7357 9.5109 3.0567 14.5643 5.5056 5.7764 12.3135 8.4098 5.5241 13.3703 10.3960 3.3353 13.1438 8.2411 4.6154 13.8310 10.0164 2.8802 13.3956 10.4232 4.5418 14.6386 4.4272 6.4052 13.0348 7.1715 4.8073 13.9104 11.5189 4.1802 13.1271 6.9013 4.8226 14.0128 10.8998 3.2609 14.3709 9.8535 2.5625 14.2579 11.1413 2.2093 11.2966 7.4795 6.5844 10.7715 8.9284 6.5698 11.6694 9.1863 6.2353 14.3124 11.5778 2.6535 13.7947 10.4296 1.9496 13.8567 8.8961 2.9805 12.9081 10.2859 5.0744 14.0576 8.3177 3.0374 14.0241 8.6751 2.9423 13.8607 10.4177 1.7935 14.1103 7.1541 3.6021 14.1102 9.9122 1.5837 14.6543 9.3411 1.4348 12.5040 6.9133 5.4535 14.1733 7.0663 3.7474 12.8523 5.0722 6.4589 13.3934 4.2432 6.4483 14.9752 4.0319 5.4678 14.1084 10.3202 2.1011 11.7652 6.9007 6.3358 13.1291 7.3515 4.6333 14.3778 9.8679 1.4005 13.5821 8.6994 3.5723 14.1700 8.6191 2.9011 13.2952 3.5389 7.1737 13.8439 6.1496 4.6613 13.8711 5.4202 5.0086 14.3914 9.8145 2.1190 13.8643 8.5464 3.3201 14.4737 8.6944 2.2180 14.3421 8.4363 2.7256 13.3820 4.5394 6.1451 14.7618 6.2541 3.1497 13.8735 8.2174 4.0159 11.9882 3.6044 7.0448 14.6191 7.7367 3.2607 14.7268 6.1196 3.0922 13.4191 6.9212 4.7577 14.2047 8.7368 3.6701 13.8719 4.4848 5.0908 14.2275 5.1691 4.3452 14.2523 7.6163 4.3185 13.6519 5.4917 6.2405 14.1921 8.7748 3.6703 14.4977 5.9491 3.1240 14.5240 5.1273 3.9065 13.6916 6.7173 4.5479 14.3914 4.9339 4.3721 13.9444 4.4411 4.9726 14.2494 11.7581 3.1694 13.5596 6.3793 5.7836 14.6363 7.1256 4.1907 13.9323 5.7118 6.4761 14.7344 7.1668 4.1872 13.8240 6.2056 5.7302 14.1099 5.4632 6.1382 14.1201 12.4594 8.3940 14.1697 11.8614 8.3940 14.6085 7.3888 4.0780 14.5123 8.0964 3.4346 14.1555 2.2149 6.4305 14.3872 7.7437 5.2751 14.8901 2.9343 5.7158 14.2700 5.7879 5.6330 14.6458 1.8354 6.5480 14.5538 7.0758 5.3407 14.1501 7.0675 5.5166 14.6014 8.1883 4.7004 14.3253 2.7417 6.1403 14.8274 3.5828 5.1202 14.6816 5.8793 5.4215 14.2597 11.8460 8.3940 14.4773 8.2291 4.8526 14.3165 13.0501 8.3940 14.3185 12.5291 8.3940 14.2439 8.4513 4.0010 14.4635 8.6128 3.7766 14.1179 7.3571 5.5901 14.6703 7.6776 3.1948 14.3685 5.1681 6.1518 14.3793 12.5112 8.3940 13.3691 1.9196 6.9495 14.1829 6.7320 5.6588 14.3839 6.2392 5.1712 14.4762 11.4845 2.7883 11.2119 8.2495 6.0873 14.8584 6.9744 4.5746 14.3066 12.3712 8.3940 14.7307 7.9293 3.4111 12.4616 13.8252 5.0273 14.6208 4.3144 6.1628 14.0137 9.6304 3.6467 14.3233 1.4135 7.2225 14.5574 12.5476 8.3940 13.1993 13.9605 4.4666 14.4343 7.0191 4.0070 14.5059 9.3985 3.6687 14.4552 7.8092 5.0948 14.6269 11.7176 8.3940 14.5277 10.9555 3.9802 14.5606 7.6985 4.9475 13.4322 13.7821 4.4444 14.5297 12.1004 8.3940 13.7466 11.6893 7.8735 13.8991 10.2222 2.8510 13.8784 10.8991 4.2182 14.1333 11.7390 3.2398 14.4707 12.9088 8.3940 14.6999 6.8943 4.2261 14.4771 12.2862 8.3940 14.6678 8.6840 3.8557 14.6092 5.2019 5.3574 14.4320 9.6627 3.1607 14.5325 13.1629 8.3940 14.6795 8.9159 3.3691 14.5372 11.8175 8.3940 14.7250 7.8698 4.0825 14.6215 11.8482 8.3940 14.6008 13.1014 8.3940 14.6543 12.7422 8.3940 14.7287 12.7505 8.3940 14.7793 12.8089 8.3940 14.7234 12.4150 8.3940 14.7109 11.2672 8.3940 14.6170 12.5240 8.3940 14.7375 11.4190 8.3940 14.6651 13.6013 8.3940 14.6989 12.6384 8.3940 14.7068 11.9170 8.3940 14.6585 12.7752 8.3940 14.7489 13.3399 8.3940 14.6408 13.3057 8.3940 14.7461 13.1139 8.3940 14.7302 11.4237 8.3940 14.7319 12.2053 8.3940 14.6121 13.1203 8.3940 14.6734 6.7930 5.4742 14.7765 12.2596 8.3940 14.7136 13.5440 8.3940 14.7684 13.3992 8.3940 13.4150 13.1525 5.3524 14.7487 13.0214 8.3940 14.6909 12.6111 8.3940 14.7221 7.1104 6.0375 14.7944 12.9913 8.3940 14.3028 7.0087 6.7500 14.6868 12.9523 8.3940 12.5335 12.6008 8.2702 14.8529 7.4696 4.0286 14.6958 13.3803 8.3940 14.8610 7.2413 4.7613 14.1408 6.9585 6.8029 14.7057 13.1184 8.3940 14.5748 12.4085 4.4777 14.7303 12.0681 8.3940 14.7575 12.7383 8.3940 14.6933 7.9910 7.2852 14.7334 8.3730 6.8927 
        </DataArray>
    </Points>
    <PointData>
        <DataArray type="Float32" Name="tag" format="ascii">
            15139.0000 28435.0000 29691.0000 98559.0000 79995.0000 87707.0000 83247.0000 82583.0000 89335.0000 84467.0000 81147.0000 92131.0000 92939.0000 87995.0000 86623.0000 89763.0000 93455.0000 88435.0000 89155.0000 92787.0000 91279.0000 84695.0000 141215.0000 136783.0000 160427.0000 160103.0000 171079.0000 167843.0000 159383.0000 147207.0000 174479.0000 158219.0000 165831.0000 159167.0000 171279.0000 158299.0000 163851.0000 151143.0000 158659.0000 157131.0000 157879.0000 155991.0000 160523.0000 153147.0000 152283.0000 156507.0000 151567.0000 155583.0000 157419.0000 166163.0000 154447.0000 162731.0000 154219.0000 149179.0000 164431.0000 171367.0000 171795.0000 164587.0000 171507.0000 165731.0000 157291.0000 162183.0000 160667.0000 169935.0000 167647.0000 169999.0000 169595.0000 170991.0000 153783.0000 177835.0000 176091.0000 176035.0000 152703.0000 177575.0000 174579.0000 156719.0000 156559.0000 183111.0000 184647.0000 176099.0000 155419.0000 154407.0000 176551.0000 151171.0000 157191.0000 76783.0000 227819.0000 213079.0000 208503.0000 211987.0000 216539.0000 208675.0000 63887.0000 58819.0000 211439.0000 217631.0000 224175.0000 224987.0000 221647.0000 227735.0000 221339.0000 217803.0000 234119.0000 214835.0000 221867.0000 217011.0000 215083.0000 73151.0000 231267.0000 76515.0000 92403.0000 228111.0000 220823.0000 235475.0000 255659.0000 223563.0000 87739.0000 213879.0000 234107.0000 222623.0000 91603.0000 143071.0000 206099.0000 66419.0000 249507.0000 272867.0000 265279.0000 283947.0000 261027.0000 96747.0000 278579.0000 253827.0000 291495.0000 286135.0000 84295.0000 276663.0000 276275.0000 275115.0000 98671.0000 87139.0000 278127.0000 267543.0000 281739.0000 98675.0000 251063.0000 92515.0000 283783.0000 258391.0000 291195.0000 100251.0000 291771.0000 97927.0000 278299.0000 94639.0000 105807.0000 109275.0000 124015.0000 130603.0000 104843.0000 94643.0000 117891.0000 98599.0000 84435.0000 123175.0000 96695.0000 98719.0000 80843.0000 109151.0000 117415.0000 95339.0000 124887.0000 96635.0000 287807.0000 130819.0000 99323.0000 102995.0000 274747.0000 121203.0000 98767.0000 241723.0000 124807.0000 363311.0000 112811.0000 149479.0000 291455.0000 80051.0000 282443.0000 359831.0000 95947.0000 285439.0000 121187.0000 112571.0000 369999.0000 368183.0000 
         </DataArray>
    </PointData>
</Piece>
</PolyData>
</VTKFile>