<?xml version="1.0"?>
<VTKFile type="PolyData" version="1.0" byte_order="LittleEndian" header_type="UInt64">
<PolyData>
<Piece NumberOfPoints="4183" NumberOfVerts="0" NumberOfLines="0" NumberOfPolys="0">
    <Points>
        <DataArray type="Float32" NumberOfComponents="3" format="ascii">
        16.6575 5.9185 5.2089 17.6775 10.5218 0.3886 16.1547 9.7749 2.2990 16.4240 11.3259 1.3496 15.6723 11.0052 5.6263 15.4687 11.0741 4.9853 15.2662 8.4361 3.8251 15.1787 10.6046 1.6286 15.6826 11.5012 0.6721 15.7264 11.0828 0.9518 15.5875 11.4139 0.9275 15.2936 10.9740 1.3445 15.5332 8.9341 3.8616 15.2185 9.2664 1.9939 15.9639 9.8490 1.1340 16.9238 8.7875 1.0897 16.4274 2.0780 5.7082 15.1314 5.1459 2.6337 16.0430 7.0964 0.7295 19.2286 11.0365 4.2254 17.3645 5.5189 1.1172 17.1941 10.4640 0.6460 20.3429 5.1250 3.9316 16.2951 8.3895 3.4460 16.3027 8.9271 2.8320 18.7788 10.6695 8.3940 18.9093 11.0157 8.3940 16.3364 8.7275 2.9437 17.0469 10.0163 1.1572 17.1905 8.5709 3.0769 18.5963 14.4670 8.3940 18.9091 14.5072 8.3940 18.9356 14.3923 8.3940 17.8222 10.1077 8.3940 16.6454 4.2449 5.1122 19.3290 13.0604 8.3940 18.5722 14.3972 8.3940 17.4412 7.6969 5.1110 18.5412 14.7724 8.3940 18.0877 8.7219 3.1792 18.4092 11.2753 0.4312 18.6601 7.6501 3.0602 17.8120 9.8593 8.3940 18.8012 7.1502 3.6206 19.4317 12.5495 8.3940 19.2280 14.0533 8.3940 15.2339 10.1807 8.3940 19.5069 12.4870 8.3940 19.4574 13.3711 8.3940 19.4577 13.3900 8.3940 19.2329 11.7784 8.3940 18.6158 10.6045 8.3940 20.1394 3.2394 5.1782 18.1690 11.0481 0.5276 18.5808 9.4464 2.5516 19.3010 8.8087 4.9109 16.8448 10.0000 1.5006 18.2314 10.3787 8.3940 16.7149 9.9489 8.3940 15.1661 10.0857 8.3940 16.8918 9.8440 8.3940 18.1990 8.5219 4.7792 15.5035 10.2655 8.3940 19.0628 14.1260 8.3940 17.9055 14.7744 8.3940 17.8530 7.2365 5.7073 15.3634 9.8488 3.3367 17.6043 9.8277 8.3940 18.8118 10.2783 2.3953 15.6278 9.9994 8.3940 15.5085 9.9774 8.3940 19.0618 11.0897 8.3940 16.4637 9.7458 8.3940 18.5321 10.4641 8.3940 17.6269 9.9699 8.3940 18.4872 10.8809 8.3940 19.4856 12.4549 8.3940 17.8116 11.0156 3.3955 17.7865 10.0086 8.3940 15.9058 10.1845 8.3940 18.9619 11.4988 8.3940 15.4781 9.2053 2.4074 15.3110 10.3461 1.5007 19.1131 13.1635 8.3940 16.1732 9.7964 8.3940 16.5572 9.8208 8.3940 18.8889 11.0798 8.3940 15.5284 11.6443 1.0436 18.8665 11.1297 8.3940 15.8662 9.8526 3.6743 15.2111 9.9655 1.9770 19.0903 13.6853 8.3940 19.3234 13.0062 8.3940 15.6809 10.3635 8.3940 15.9336 8.7515 7.9401 17.4299 10.0574 8.3940 18.9292 11.3575 8.3940 18.7137 10.9663 8.3940 18.8722 10.3429 2.3349 15.0152 11.4089 2.3891 18.7930 10.8653 2.4393 15.4300 11.2970 0.9614 15.2522 10.0822 0.8467 15.4236 11.1730 0.7669 16.4330 2.8577 4.1982 18.5965 10.6858 8.3940 19.3380 12.1309 8.3940 19.3076 12.8377 8.3940 18.3471 10.4249 8.3940 15.0358 11.3742 2.4003 18.1081 14.6199 8.3940 16.8901 10.2199 8.3940 17.2031 9.8925 8.3940 15.2016 14.6960 8.3940 15.2309 14.6907 8.3940 19.0050 12.4299 8.3940 18.8040 13.7540 8.3940 18.9722 13.3745 8.3940 15.1181 9.7252 2.1399 15.2686 10.6199 8.3940 19.0077 12.4309 8.3940 15.5322 10.4067 8.3940 15.0584 10.5912 1.5923 18.3293 14.1975 8.3940 18.9095 11.8022 8.3940 18.8535 14.0639 8.3940 17.8181 10.4574 8.3940 15.0447 8.1177 3.2478 18.5925 11.2683 8.3940 18.9733 11.5672 8.3940 16.5478 10.0530 8.3940 15.3680 10.5880 8.3940 18.9912 12.3214 8.3940 18.7638 13.8170 8.3940 18.7056 10.2572 2.5015 15.1587 10.2493 8.3940 15.2439 10.2218 8.3940 15.3883 10.2421 8.3940 15.4624 14.4913 8.3940 17.6955 14.7330 8.3940 19.2080 12.6090 8.3940 19.2521 12.2453 8.3940 17.4911 10.1152 8.3940 17.4523 10.0843 8.3940 17.5791 10.4263 8.3940 18.8507 11.8600 8.3940 18.6763 11.0678 8.3940 17.3935 14.7162 8.3940 15.4043 14.4780 8.3940 17.2836 14.7437 8.3940 18.9666 12.3414 8.3940 15.7064 10.1167 8.3940 18.6952 11.0261 8.3940 18.2079 14.0976 8.3940 18.7754 13.3309 8.3940 16.4103 7.2699 0.9544 16.2213 10.0532 8.3940 15.5079 14.4505 8.3940 18.5619 14.1306 8.3940 18.3763 14.1864 8.3940 15.5874 14.5987 8.3940 15.2655 10.6884 8.3940 15.4474 14.4680 8.3940 18.9298 12.5588 8.3940 16.2671 8.7923 0.8195 18.3928 11.1078 8.3940 19.1832 12.0885 8.3940 16.7257 10.1551 8.3940 19.0678 11.7006 8.3940 18.6065 14.2058 8.3940 18.8347 12.2799 8.3940 18.7862 10.2733 2.4209 15.2722 10.4166 8.3940 19.0076 13.3937 8.3940 18.9613 12.3144 8.3940 16.8513 10.0086 8.3940 19.0034 13.5240 8.3940 18.8244 13.4605 8.3940 18.6985 11.3914 8.3940 16.0701 10.1358 8.3940 18.5719 13.8366 8.3940 17.0342 14.7668 8.3940 18.9897 12.3511 8.3940 17.9227 10.5578 8.3940 18.0250 10.6646 8.3940 17.6707 14.4979 8.3940 15.9992 14.6014 8.3940 18.1976 14.5203 8.3940 18.8037 11.3336 8.3940 16.1415 3.5591 4.4523 18.7759 10.3141 2.4312 16.7450 10.2954 8.3940 18.2049 10.0000 2.0769 16.5761 8.5203 4.9269 18.8597 13.6063 8.3940 15.8429 10.4988 8.3940 15.2157 14.1120 8.3940 18.6010 10.7029 2.6061 18.6590 14.0856 8.3940 15.9201 14.5526 8.3940 18.1576 14.5341 8.3940 17.5645 14.7293 8.3940 18.3398 10.5301 2.8673 15.9468 5.4387 5.9440 18.6252 11.2887 8.3940 15.4457 14.7346 8.3940 16.2070 14.7293 8.3940 18.5962 13.8307 8.3940 18.3979 11.1658 8.3940 18.7280 10.6570 2.4791 16.5811 8.3620 3.4277 16.4823 10.4197 8.3940 17.4999 14.3857 8.3940 15.2190 14.5513 8.3940 17.1299 14.7471 8.3940 17.5541 11.0224 0.8353 18.8229 12.9443 8.3940 18.7646 12.6142 8.3940 17.8151 10.7262 8.3940 17.0885 9.3952 1.4954 15.3492 10.4500 8.3940 18.7233 11.9009 8.3940 15.2774 14.2741 8.3940 15.9160 10.3546 8.3940 17.8878 10.7193 8.3940 18.7087 12.1592 8.3940 19.0398 12.5428 8.3940 18.7041 13.0170 8.3940 18.6012 13.6492 8.3940 18.3923 13.5644 8.3940 16.9093 14.7591 8.3940 18.8355 12.4143 8.3940 16.3453 10.4852 5.1962 18.8519 13.1031 8.3940 17.5700 14.6317 8.3940 18.6682 13.3085 8.3940 18.4453 13.7826 8.3940 18.3062 14.0074 8.3940 16.7082 14.5507 8.3940 16.0747 10.3935 8.3940 16.2996 10.5066 8.3940 15.6726 14.6563 8.3940 18.3630 14.2705 8.3940 18.8049 12.5216 8.3940 16.7156 10.3267 8.3940 15.2271 10.7249 8.3940 18.3774 11.0600 8.3940 17.1232 9.3257 2.7981 15.2596 14.4767 8.3940 15.6718 14.6795 8.3940 18.9239 11.8871 8.3940 18.9456 11.8647 8.3940 17.9726 10.6150 8.3940 15.4588 14.3278 8.3940 16.6283 14.5379 8.3940 17.4205 10.5070 1.6145 15.1987 10.7899 8.3940 18.6084 11.4346 8.3940 17.9252 14.6593 8.3940 18.3257 14.0231 8.3940 17.9872 10.5820 8.3940 17.2685 10.4275 8.3940 16.0167 10.3611 8.3940 18.7219 13.9458 8.3940 16.4005 4.2386 3.0247 16.0197 5.6853 6.3129 18.1925 14.1071 8.3940 15.1589 10.9105 8.3940 15.4343 10.7233 8.3940 18.4595 11.2714 8.3940 18.8312 11.4421 8.3940 16.8879 9.0053 2.4864 17.6329 10.2743 8.3940 15.4737 10.6270 8.3940 18.4548 11.2131 8.3940 16.8500 14.7083 8.3940 19.0526 12.2724 8.3940 18.8224 11.7449 8.3940 15.1591 14.4965 8.3940 18.4626 14.0183 8.3940 18.1156 10.9869 8.3940 18.8255 12.6144 8.3940 15.1994 14.2951 8.3940 18.3548 11.1360 8.3940 19.0168 12.4531 8.3940 15.2995 10.9003 8.3940 15.6388 10.2669 8.3940 16.5626 10.4357 8.3940 16.3817 14.6368 8.3940 17.6761 14.4701 8.3940 18.0130 14.4818 8.3940 18.5896 10.6714 2.6175 18.7830 12.1035 8.3940 17.1698 9.2386 2.5476 17.2873 10.4074 8.3940 18.7698 12.3489 8.3940 17.2077 10.2112 8.3940 18.5568 13.5556 8.3940 18.1228 11.0926 8.3940 16.6926 14.6482 8.3940 18.7897 12.4002 8.3940 16.9855 10.0986 2.4809 17.6806 14.5502 8.3940 17.9126 14.1792 8.3940 18.8161 11.8563 8.3940 17.3408 9.7272 0.7031 15.5833 10.5866 8.3940 17.3798 10.6694 8.3940 18.6454 13.6502 8.3940 15.2351 14.4034 8.3940 17.5804 14.3134 8.3940 15.7534 10.4540 8.3940 15.6730 10.7177 8.3940 17.4838 14.4612 8.3940 16.8610 14.6051 8.3940 18.4238 13.9083 8.3940 18.3475 13.6651 8.3940 16.9775 8.7565 3.6110 17.0967 10.4981 8.3940 18.3196 11.0891 8.3940 17.9519 14.4753 8.3940 18.8801 10.4269 2.3270 17.3707 10.0000 2.0549 15.8661 7.6181 5.4275 16.2061 6.5285 2.4826 17.1305 8.4372 3.0992 15.3347 8.4348 2.1010 18.2261 10.4542 2.9810 17.1770 7.1118 1.7256 17.2068 8.4267 4.7796 16.8444 6.9733 6.2505 18.6998 10.6747 2.5073 17.5352 10.2253 1.6630 15.5984 9.7734 0.9922 17.7682 10.9396 3.4389 18.9369 10.3360 2.2702 16.0557 8.4446 1.5346 15.8086 14.3760 8.3940 18.5466 10.3288 2.6605 16.6792 11.5621 4.5773 15.2004 14.2584 8.3940 18.4341 10.7106 2.7730 18.7044 10.7560 2.5027 15.5945 8.4060 1.0187 18.1670 10.9182 8.3940 16.0247 6.8674 1.7249 18.2185 13.8570 8.3940 17.0219 10.0000 1.8273 15.5986 9.6922 1.1982 18.1377 13.8250 8.3940 18.1998 10.0000 2.8165 15.3921 14.4140 8.3940 16.7606 14.5015 8.3940 18.1348 10.8602 8.3940 15.4581 9.9950 1.1980 15.5399 14.1910 8.3940 18.7486 12.7005 8.3940 17.5909 4.8936 4.8511 18.3590 10.3219 2.8481 15.8973 10.7355 8.3940 18.7222 12.3008 8.3940 17.2959 7.0048 2.5035 18.6305 13.3481 8.3940 17.8816 14.0842 8.3940 17.5534 9.5375 3.1058 15.3136 11.0783 8.3940 15.8682 10.4163 8.3940 15.2269 14.1980 8.3940 18.0467 10.7653 8.3940 17.2747 14.6722 8.3940 18.6481 13.4258 8.3940 16.1947 4.9624 4.4388 18.8089 12.5465 8.3940 15.4249 14.2484 8.3940 18.3511 11.5626 8.3940 18.1919 11.5132 8.3940 18.4527 13.7984 8.3940 17.1857 14.5012 8.3940 18.0283 13.8515 8.3940 17.0168 14.4863 8.3940 18.6556 11.4986 8.3940 18.9389 12.3462 8.3940 16.5929 8.1424 2.7540 15.0396 10.2483 1.7133 16.5575 10.4626 8.3940 17.7426 11.1092 8.3940 18.0415 11.0842 8.3940 18.7043 11.7862 8.3940 18.4751 13.3731 8.3940 17.0603 10.7255 8.3940 15.1559 11.1891 8.3940 16.5786 10.4669 8.3940 18.3129 11.5245 8.3940 15.1969 14.0228 8.3940 18.0579 13.8516 8.3940 16.7427 14.5240 8.3940 16.0593 10.6403 8.3940 18.2238 14.0277 8.3940 18.4203 11.8751 8.3940 17.4468 10.9086 8.3940 17.9910 14.4147 8.3940 18.7056 13.2506 8.3940 15.3774 10.8830 8.3940 16.4982 10.5048 8.3940 18.0709 13.8251 8.3940 16.8694 10.3749 8.3940 18.7462 12.7278 8.3940 17.2226 14.2988 8.3940 16.2008 10.7365 8.3940 18.5248 13.5541 8.3940 15.9704 10.5632 8.3940 18.6393 11.6047 8.3940 16.5870 10.6975 8.3940 18.0765 13.9860 8.3940 16.5448 10.6602 8.3940 17.9675 10.7482 8.3940 18.7976 12.5125 8.3940 16.0012 14.6177 8.3940 15.9945 10.7428 8.3940 18.6615 13.2093 8.3940 17.4524 5.1859 3.8796 16.4152 14.5826 8.3940 15.2273 11.4146 8.3940 18.7237 10.5671 2.4834 18.1022 11.1616 8.3940
[...]
    <PointData>
        <DataArray type="Float32" Name="tag" format="ascii">
            8603.0000 10311.0000 10611.0000 12211.0000 12631.0000 14215.0000 14587.0000 15139.0000 18383.0000 18851.0000 20847.0000 28435.0000 30607.0000 33571.0000 33583.0000 35963.0000 39383.0000 39535.0000 39655.0000 39943.0000 41895.0000 46683.0000 66299.0000 47311.0000 48039.0000 48363.0000 50039.0000 50047.0000 50311.0000 50735.0000 53515.0000 53535.0000 53539.0000 55283.0000 56307.0000 57183.0000 58003.0000 58471.0000 58875.0000 59927.0000 59947.0000 60495.0000 60563.0000 62419.0000 62951.0000 63815.0000 63911.0000 63927.0000 64587.0000 65551.0000 66439.0000 66479.0000 66523.0000 66703.0000 66955.0000 72203.0000 84911.0000 67267.0000 69479.0000 69487.0000 69491.0000 69651.0000 70879.0000 70911.0000 71627.0000 72047.0000 72379.0000 73115.0000 73623.0000 74755.0000 74783.0000 74839.0000 75595.0000 75631.0000 75651.0000 75683.0000 75719.0000 76459.0000 77315.0000 77351.0000 77451.0000 77663.0000 77883.0000 79911.0000 79999.0000 80831.0000 81759.0000 81939.0000 83415.0000 84667.0000 84863.0000 85127.0000 85171.0000 85227.0000 85379.0000 85959.0000 86047.0000 86067.0000 99303.0000 89335.0000 105495.0000 91423.0000 93607.0000 92919.0000 102899.0000 86895.0000 86915.0000 86999.0000 87807.0000 87995.0000 88663.0000 89475.0000 90231.0000 90283.0000 90303.0000 90363.0000 90915.0000 90963.0000 91279.0000 91771.0000 91823.0000 91843.0000 92131.0000 92415.0000 93203.0000 93219.0000 93343.0000 93455.0000 93983.0000 94103.0000 94623.0000 94655.0000 95307.0000 95419.0000 95515.0000 96019.0000 96555.0000 96643.0000 96667.0000 96771.0000 97871.0000 97887.0000 97919.0000 97923.0000 97939.0000 98015.0000 98019.0000 99327.0000 99615.0000 100215.0000 100295.0000 100303.0000 100319.0000 100331.0000 100383.0000 101067.0000 101083.0000 101099.0000 101127.0000 101167.0000 101195.0000 101199.0000 101203.0000 101279.0000 101495.0000 101991.0000 102159.0000 102287.0000 102335.0000 103039.0000 103075.0000 103475.0000 103955.0000 104007.0000 104159.0000 104183.0000 104903.0000 104923.0000 104979.0000 105639.0000 105775.0000 105795.0000 106419.0000 106487.0000 106531.0000 106583.0000 106639.0000 106667.0000 106683.0000 106723.0000 110443.0000 120615.0000 123667.0000 116047.0000 119071.0000 112803.0000 120551.0000 111415.0000 111103.0000 111923.0000 111919.0000 111903.0000 118519.0000 107815.0000 120519.0000 111871.0000 111067.0000 123519.0000 124311.0000 114759.0000 118167.0000 115931.0000 124287.0000 115923.0000 115919.0000 125063.0000 119699.0000 114371.0000 120467.0000 111023.0000 113603.0000 110191.0000 118935.0000 123451.0000 112655.0000 117423.0000 119647.0000 116519.0000 121143.0000 124231.0000 118095.0000 119615.0000 118075.0000 114323.0000 124927.0000 118859.0000 112591.0000 112587.0000 122671.0000 115831.0000 118847.0000 118843.0000 114291.0000 118039.0000 126603.0000 120331.0000 118835.0000 109327.0000 121079.0000 125771.0000 118011.0000 122615.0000 125743.0000 120291.0000 125739.0000 124535.0000 118779.0000 107295.0000 107339.0000 107391.0000 107483.0000 108099.0000 108195.0000 108231.0000 108459.0000 109031.0000 109035.0000 109191.0000 109791.0000 109983.0000 110759.0000 110803.0000 110831.0000 110899.0000 110903.0000 111467.0000 111475.0000 111515.0000 111607.0000 111623.0000 111655.0000 113155.0000 113203.0000 113419.0000 113447.0000 113483.0000 114915.0000 114943.0000 115667.0000 115767.0000 116331.0000 116391.0000 117167.0000 117855.0000 118591.0000 120111.0000 120251.0000 121031.0000 121611.0000 121643.0000 121651.0000 121743.0000 122375.0000 122539.0000 123099.0000 123127.0000 123203.0000 123219.0000 123227.0000 123259.0000 123939.0000 124043.0000 124659.0000 124663.0000 124791.0000 124799.0000 124823.0000 125439.0000 125547.0000 126351.0000 126383.0000 126427.0000 126443.0000 126479.0000 140835.0000 136687.0000 142447.0000 136563.0000 135619.0000 130987.0000 130215.0000 145879.0000 130195.0000 135591.0000 129547.0000 136515.0000 137411.0000 135507.0000 131159.0000 127639.0000 130907.0000 146903.0000 143235.0000 145019.0000 129239.0000 137515.0000 129223.0000 130847.0000 145763.0000 130079.0000 131807.0000 129175.0000 134535.0000 140543.0000 136387.0000 129151.0000 129147.0000 130015.0000 132699.0000 128347.0000 128339.0000 135331.0000 136319.0000 134455.0000 132687.0000 129071.0000 134423.0000 127443.0000 134395.0000 133483.0000 141259.0000 137295.0000 143831.0000 140455.0000 146619.0000 146611.0000 129943.0000 132643.0000 143815.0000 129935.0000 135259.0000 131651.0000 129919.0000 141215.0000 130631.0000 145639.0000 139651.0000 142919.0000 145607.0000 146567.0000 132555.0000 140379.0000 131583.0000 142091.0000 142891.0000 130567.0000 143731.0000 129859.0000 145547.0000 142859.0000 134259.0000 132507.0000 128979.0000 142823.0000 135139.0000 139583.0000 146515.0000 145479.0000 140307.0000 145475.0000 142775.0000 127299.0000 141115.0000 140303.0000 136147.0000 136143.0000 142003.0000 145459.0000 136135.0000 144575.0000 133359.0000 144563.0000 145431.0000 145927.0000 144551.0000 127103.0000 127123.0000 127259.0000 128059.0000 128067.0000 128115.0000 128847.0000 129623.0000 129799.0000 130475.0000 131279.0000 131391.0000 131415.0000 132207.0000 132307.0000 132423.0000 132439.0000 133063.0000 133111.0000 133123.0000 133211.0000 133275.0000 133339.0000 134059.0000 134147.0000 134151.0000 134899.0000 134927.0000 134947.0000 134991.0000 135787.0000 135839.0000 135891.0000 135987.0000 135999.0000 136003.0000 136027.0000 136055.0000 136087.0000 136103.0000 136755.0000 136943.0000 137687.0000 137691.0000 137771.0000 137843.0000 137867.0000 137975.0000 138683.0000 138711.0000 138787.0000 138839.0000 139395.0000 139463.0000 139491.0000 140147.0000 140171.0000 140879.0000 140919.0000 140943.0000 141047.0000 141631.0000 141643.0000 141659.0000 141715.0000 141775.0000 141819.0000 141823.0000 141855.0000 141867.0000 141879.0000 142631.0000 142691.0000 142727.0000 143375.0000 143455.0000 143539.0000 143583.0000 143635.0000 143639.0000 144259.0000 144415.0000 144479.0000 144519.0000 145187.0000 145287.0000 145295.0000 146147.0000 146191.0000 146207.0000 146247.0000 146251.0000 146271.0000 146323.0000 147891.0000 149647.0000 157131.0000 147839.0000 155195.0000 147819.0000 150499.0000 166319.0000 148495.0000 151211.0000 148479.0000 152203.0000 155915.0000 149359.0000 149355.0000 151151.0000 155899.0000 151135.0000 152151.0000 158735.0000 158719.0000 171451.0000 150235.0000 150227.0000 151103.0000 160567.0000 160563.0000 152115.0000 154891.0000 156843.0000 150207.0000 153015.0000 157683.0000 160535.0000 147339.0000 148327.0000 164215.0000 158675.0000 149227.0000 154871.0000 152995.0000 152103.0000 158667.0000 160507.0000 152099.0000 160503.0000 154863.0000 162339.0000 160491.0000 147103.0000 147143.0000 147211.0000 147223.0000 147235.0000 147239.0000 147283.0000 147287.0000 147983.0000 148051.0000 148067.0000 148199.0000 148275.0000 148867.0000 148995.0000 149003.0000 149087.0000 149103.0000 149111.0000 149131.0000 149219.0000 149903.0000 149991.0000 150019.0000 150079.0000 150879.0000 150911.0000 150923.0000 150935.0000 150975.0000 150999.0000 151003.0000 151699.0000 151723.0000 151823.0000 151839.0000 151935.0000 151971.0000 151999.0000 152039.0000 152087.0000 152599.0000 152643.0000 152695.0000 152703.0000 152795.0000 152867.0000 152891.0000 152895.0000 152971.0000 152975.0000 153535.0000 153651.0000 153783.0000 153827.0000 153831.0000 153851.0000 153943.0000 153959.0000 154519.0000 154587.0000 154707.0000 154719.0000 154743.0000 154819.0000 155431.0000 155447.0000 155491.0000 155675.0000 155711.0000 156375.0000 156587.0000 156607.0000 156687.0000 156707.0000 156711.0000 156799.0000 157275.0000 157287.0000 157319.0000 157427.0000 157447.0000 157471.0000 157579.0000 158259.0000 158523.0000 158655.0000 159143.0000 159303.0000 159331.0000 159371.0000 159387.0000 159395.0000 159435.0000 159503.0000 159531.0000 159559.0000 160095.0000 160111.0000 160151.0000 160207.0000 160303.0000 160311.0000 160395.0000 160411.0000 160415.0000 160459.0000 161107.0000 161163.0000 161195.0000 161211.0000 161219.0000 161387.0000 161439.0000 162935.0000 162987.0000 163031.0000 163051.0000 163147.0000 163203.0000 163315.0000 163331.0000 163395.0000 163787.0000 163875.0000 164127.0000 164767.0000 164939.0000 165067.0000 165099.0000 165167.0000 165299.0000 165771.0000 166679.0000 166791.0000 166859.0000 166903.0000 167059.0000 167727.0000 167803.0000 168935.0000 170199.0000 170207.0000 170211.0000 170227.0000 170383.0000 170527.0000 170571.0000 171811.0000 171823.0000 171827.0000 171967.0000 171983.0000 172083.0000 172103.0000 172107.0000 172111.0000 172115.0000 172163.0000 172639.0000 172711.0000 172855.0000 213711.0000 205907.0000 201727.0000 213439.0000 194039.0000 207371.0000 202899.0000 203159.0000 183119.0000 201707.0000 181535.0000 174915.0000 204655.0000 204651.0000 192487.0000 204291.0000 208763.0000 206099.0000 210279.0000 213335.0000 210219.0000 183019.0000 204223.0000 204531.0000 192743.0000 196879.0000 183003.0000 186195.0000 201627.0000 203075.0000 197187.0000 204191.0000 174731.0000 197155.0000 207127.0000 200131.0000 193771.0000 195227.0000 198235.0000 187739.0000 193719.0000 208567.0000 201107.0000 181263.0000 208547.0000 205627.0000 208539.0000 207491.0000 173447.0000 173587.0000 173703.0000 173707.0000 173907.0000 175163.0000 175171.0000 175251.0000 175259.0000 175351.0000 175407.0000 175455.0000 213507.0000 176155.0000 176775.0000 176787.0000 176947.0000 177095.0000 177403.0000 178423.0000 178583.0000 178743.0000 179495.0000 180083.0000 180247.0000 180287.0000 180295.0000 180319.0000 180339.0000 180455.0000 180883.0000 180931.0000 181819.0000 182091.0000 183371.0000 183383.0000 183435.0000 183627.0000 183687.0000 183783.0000 185003.0000 185047.0000 185303.0000 185351.0000 185375.0000 185483.0000 187079.0000 187111.0000 187471.0000 187539.0000 187563.0000 188391.0000 188527.0000 188583.0000 188643.0000 188819.0000 189115.0000 189143.0000 189299.0000 189935.0000 189967.0000 190083.0000 190267.0000 190291.0000 190355.0000 190359.0000 191415.0000 191487.0000 191523.0000 191579.0000 191703.0000 191771.0000 191807.0000 191935.0000 191955.0000 192175.0000 193007.0000 193043.0000 193091.0000 193147.0000 193155.0000 193263.0000 193271.0000 193275.0000 193339.0000 193371.0000 193399.0000 193403.0000 194395.0000 194599.0000 194747.0000 194831.0000 194871.0000 195083.0000 195859.0000 195887.0000 195919.0000 196071.0000 196263.0000 196355.0000 196363.0000 197447.0000 197491.0000 197591.0000 197687.0000 197931.0000 197947.0000 198991.0000 199051.0000 199083.0000 199099.0000 199195.0000 199227.0000 199395.0000 200303.0000 200451.0000 200519.0000 200547.0000 200635.0000 200643.0000 201771.0000 201823.0000 202055.0000 202111.0000 202163.0000 202219.0000 202283.0000 203267.0000 203371.0000 203479.0000 203495.0000 203611.0000 203879.0000 204867.0000 204887.0000 204895.0000 204927.0000 204983.0000 205391.0000 205407.0000 206419.0000 206503.0000 206603.0000 206643.0000 206651.0000 206655.0000 206991.0000 207767.0000 207811.0000 207895.0000 207959.0000 207971.0000 208055.0000 208099.0000 208115.0000 208159.0000 209291.0000 209367.0000 209415.0000 209483.0000 209519.0000 209539.0000 209543.0000 209551.0000 209591.0000 209595.0000 210023.0000 210027.0000 210671.0000 210683.0000 210735.0000 210739.0000 210815.0000 210827.0000 211027.0000 211107.0000 212251.0000 212363.0000 212367.0000 212387.0000 212399.0000 212419.0000 212439.0000 212455.0000 212519.0000 212567.0000 212727.0000 212823.0000 212963.0000 222627.0000 243359.0000 236031.0000 222559.0000 247639.0000 240251.0000 247631.0000 252255.0000 236003.0000 238807.0000 243011.0000 232643.0000 232631.0000 239859.0000 252211.0000 250983.0000 232587.0000 252195.0000 249455.0000 250595.0000 235695.0000 234275.0000 241367.0000 232911.0000 237351.0000 249431.0000 252139.0000 238455.0000 221055.0000 226639.0000 234511.0000 235647.0000 239707.0000 232863.0000 226575.0000 216407.0000 252495.0000 235619.0000 223639.0000 244755.0000 249375.0000 219215.0000 247303.0000 235579.0000 247291.0000 241199.0000 252475.0000 232827.0000 235871.0000 235863.0000 246319.0000 244731.0000 232775.0000 247791.0000 243083.0000 244647.0000 250871.0000 249255.0000 238595.0000 249179.0000 213811.0000 213843.0000 214171.0000 214175.0000 214211.0000 214767.0000 215391.0000 215499.0000 215567.0000 215627.0000 216887.0000 216943.0000 216999.0000 217019.0000 217147.0000 217187.0000 218559.0000 218611.0000 218635.0000 219739.0000 219947.0000 219995.0000 220123.0000 220151.0000 220219.0000 221367.0000 221443.0000 221527.0000 221647.0000 222971.0000 223047.0000 223159.0000 224103.0000 224163.0000 224359.0000 224447.0000 224459.0000 225551.0000 225591.0000 225631.0000 225771.0000 225823.0000 225847.0000 225899.0000 225939.0000 226039.0000 226403.0000 226979.0000 227027.0000 227119.0000 227183.0000 227195.0000 227203.0000 227247.0000 227303.0000 228455.0000 228471.0000 228499.0000 228527.0000 228535.0000 228595.0000 228979.0000 229083.0000 229887.0000 229967.0000 230195.0000 230211.0000 230247.0000 230283.0000 230303.0000 230947.0000 231487.0000 231495.0000 231571.0000 231671.0000 231687.0000 231695.0000 231807.0000 233055.0000 233063.0000 233163.0000 233247.0000 233291.0000 233379.0000 233387.0000 233551.0000 233587.0000 233859.0000 234727.0000 234803.0000 234879.0000 234919.0000 234947.0000 234975.0000 235263.0000 235459.0000 235527.0000 236095.0000 236215.0000 236267.0000 236391.0000 237771.0000 237807.0000 237843.0000 238875.0000 238903.0000 238951.0000 238999.0000 239051.0000 239119.0000 239187.0000 239199.0000 240307.0000 240459.0000 240551.0000 240555.0000 240667.0000 240703.0000 241091.0000 241823.0000 241827.0000 241859.0000 241883.0000 241955.0000 242047.0000 242099.0000 242131.0000 242135.0000 242227.0000 242531.0000 242707.0000 243531.0000 243675.0000 243719.0000 244927.0000 244959.0000 245227.0000 245267.0000 245311.0000 245351.0000 245815.0000 245819.0000 246463.0000 246615.0000 246647.0000 246703.0000 246747.0000 246763.0000 247255.0000 248067.0000 248139.0000 248191.0000 248203.0000 248247.0000 248351.0000 248439.0000 248551.0000 249607.0000 249643.0000 249667.0000 249755.0000 249979.0000 250431.0000 251191.0000 251211.0000 251327.0000 251391.0000 251875.0000 264063.0000 262367.0000 278867.0000 278847.0000 288187.0000 267099.0000 276455.0000 282007.0000 284463.0000 265159.0000 274555.0000 283899.0000 281991.0000 258547.0000 267067.0000 258543.0000 258539.0000 261871.0000 267059.0000 281979.0000 256743.0000 258915.0000 269459.0000 265703.0000 291223.0000 256723.0000 272683.0000 254127.0000 274499.0000 278223.0000 253723.0000 265059.0000 257187.0000 288135.0000 287475.0000 287463.0000 263487.0000 265019.0000 278183.0000 282507.0000 275015.0000 265643.0000 274435.0000 283743.0000 285559.0000 258443.0000 276883.0000 261719.0000 291879.0000 274999.0000 267507.0000 269419.0000 254111.0000 264959.0000 260183.0000 288083.0000 283719.0000 282487.0000 291103.0000 273107.0000 266935.0000 256615.0000 263923.0000 260151.0000 261627.0000 257139.0000 284327.0000 268799.0000 282443.0000 253603.0000 274355.0000 263355.0000 287303.0000 291051.0000 278759.0000 270619.0000 260127.0000 268683.0000 291003.0000 279963.0000 258363.0000 263867.0000 256515.0000 271183.0000 276163.0000 269363.0000 287211.0000 261547.0000 263863.0000 290971.0000 279923.0000 261535.0000 285367.0000 260083.0000 274919.0000 272443.0000 289047.0000 278699.0000 254031.0000 254027.0000 273023.0000 257075.0000 291727.0000 269315.0000 260515.0000 262163.0000 289883.0000 253955.0000 262123.0000 267363.0000 269255.0000 255439.0000 258703.0000 256995.0000 287971.0000 286067.0000 269227.0000 289855.0000 274859.0000 269191.0000 260395.0000 274847.0000 267283.0000 278611.0000 272927.0000 258611.0000 290919.0000 291659.0000 269151.0000 270987.0000 286015.0000 274767.0000 274763.0000 276631.0000 287115.0000 284135.0000 287931.0000 278523.0000 289803.0000 280371.0000 278491.0000 276547.0000 276535.0000 280331.0000 278455.0000 280323.0000 276503.0000 278423.0000 280287.0000 291575.0000 282051.0000 272787.0000 289627.0000 283939.0000 287727.0000 289531.0000 252667.0000 252687.0000 252787.0000 252987.0000 252995.0000 253371.0000 254299.0000 254455.0000 254547.0000 254563.0000 254599.0000 255783.0000 255811.0000 255835.0000 255851.0000 255863.0000 255903.0000 255927.0000 255999.0000 256095.0000 256199.0000 256355.0000 256431.0000 257367.0000 257463.0000 257491.0000 257551.0000 257559.0000 257799.0000 257843.0000 258063.0000 258179.0000 259003.0000 259163.0000 259235.0000 259263.0000 259347.0000 260015.0000 260067.0000 260751.0000 260835.0000 260851.0000 260899.0000 261003.0000 261351.0000 262383.0000 262571.0000 262627.0000 262823.0000 262847.0000 262915.0000 262947.0000 262979.0000 263083.0000 264163.0000 264255.0000 264343.0000 264363.0000 264395.0000 264411.0000 264535.0000 264539.0000 264687.0000 265783.0000 265787.0000 265823.0000 265871.0000 266079.0000 266099.0000 266215.0000 266251.0000 266331.0000 266375.0000 266403.0000 266703.0000 266735.0000 267659.0000 267667.0000 267851.0000 267927.0000 268003.0000 268103.0000 268235.0000 268243.0000 269619.0000 269791.0000 269835.0000 269927.0000 270007.0000 270055.0000 270099.0000 270151.0000 270195.0000 270247.0000 270491.0000 271567.0000 271671.0000 271799.0000 271919.0000 271931.0000 271963.0000 271995.0000 272023.0000 272179.0000 273271.0000 273383.0000 273407.0000 273443.0000 273447.0000 273603.0000 273643.0000 273835.0000 273867.0000 273919.0000 273971.0000 275259.0000 275267.0000 275395.0000 275431.0000 275539.0000 275571.0000 275687.0000 275903.0000 275995.0000 277051.0000 277223.0000 277331.0000 277371.0000 277575.0000 277767.0000 277787.0000 278947.0000 278959.0000 279155.0000 279179.0000 279183.0000 279243.0000 279327.0000 279335.0000 279467.0000 279487.0000 279591.0000 279759.0000 280779.0000 281011.0000 281123.0000 281379.0000 281475.0000 282827.0000 282951.0000 283155.0000 283195.0000 283359.0000 284539.0000 284691.0000 284703.0000 284755.0000 284859.0000 284883.0000 284947.0000 285039.0000 285043.0000 285059.0000 285287.0000 286375.0000 286391.0000 286683.0000 286807.0000 286823.0000 287047.0000 288271.0000 288403.0000 288523.0000 288563.0000 288587.0000 288659.0000 288663.0000 288887.0000 290247.0000 290283.0000 290383.0000 290627.0000 290643.0000 290663.0000 290899.0000 331803.0000 305059.0000 306939.0000 305055.0000 308815.0000 304423.0000 302503.0000 325963.0000 318739.0000 295043.0000 310459.0000 304403.0000 308799.0000 321055.0000 298779.0000 320183.0000 318711.0000 316495.0000 296919.0000 326863.0000 330319.0000 325431.0000 332707.0000 332703.0000 329775.0000 321615.0000 326843.0000 319715.0000 331759.0000 325939.0000 330303.0000 299407.0000 332691.0000 326827.0000 332687.0000 323067.0000 299391.0000 321019.0000 331159.0000 325403.0000 316459.0000 298707.0000 302411.0000 329735.0000 332671.0000 300555.0000 295607.0000 329703.0000 332651.0000 308251.0000 309807.0000 311475.0000 326787.0000 293083.0000 326779.0000 330255.0000 332639.0000 298599.0000 303071.0000 313035.0000 332603.0000 302351.0000 308203.0000 320963.0000 313711.0000 296739.0000 331083.0000 303043.0000 301223.0000 310415.0000 296731.0000 298567.0000 320107.0000 331063.0000 325903.0000 321539.0000 306015.0000 321535.0000 329607.0000 308151.0000 316987.0000 308147.0000 310391.0000 328255.0000 322491.0000 299315.0000 305991.0000 303011.0000 316327.0000 308139.0000 305975.0000 328239.0000 314775.0000 304155.0000 316299.0000 305955.0000 325879.0000 294755.0000 321515.0000 309727.0000 300387.0000 329547.0000 329539.0000 325211.0000 295519.0000 320087.0000 326691.0000 316279.0000 310355.0000 312943.0000 294731.0000 329515.0000 304115.0000 319531.0000 296611.0000 323007.0000 296595.0000 320871.0000 296567.0000 294699.0000 318015.0000 305931.0000 304823.0000 333111.0000 308035.0000 294679.0000 304819.0000 311323.0000 330155.0000 300283.0000 331639.0000 319499.0000 322423.0000 327315.0000 305883.0000 31523