<?xml version="1.0"?>
<VTKFile type="RectilinearGrid" version="1.0" byte_order="LittleEndian" header_type="UInt64">
<RectilinearGrid WholeExtent="25 50 0 25 0 15">
<Piece Extent="25 50 0 25 0 15">
<Coordinates>
<DataArray type="Float64" Name="Array X-Axis" format="ascii" RangeMin="15.0" RangeMax="30.0">
15.0 15.6 16.2 16.8 17.4 18.0 18.6 19.2 19.8 20.4 21.0 21.6 22.2 22.8 23.4 24.0 24.6 25.2 25.8 26.4 27.0 27.6 28.2 28.8 29.4 30.0 
</DataArray>
<DataArray type="Float64" Name="Array Y-Axis" format="ascii" RangeMin="0.0" RangeMax="15.0">
0.0 0.6 1.2 1.8 2.4 3.0 3.6 4.2 4.8 5.4 6.0 6.6 7.2 7.8 8.4 9.0 9.6 10.2 10.8 11.4 12.0 12.6 13.2 13.8 14.4 15.0 
</DataArray>
<DataArray type="Float64" Name="Array Z-Axis" format="ascii" RangeMin="0.0" RangeMax="9.0">
0.0 0.6 1.2 1.8 2.4 3.0 3.6 4.2 4.8 5.4 6.0 6.6 7.2 7.8 8.4 9.0 
</DataArray>
</Coordinates>
<PointData>
<DataArray Name="TEMPERATURE" NumberOfComponents="1" type="Float64" format="ascii">
20.0 20.0 20.0 20.0 20.0 20.1 20.1 20.1 20.1 20.1 20.1 20.1 20.0 20.0 20.0 20.0 20.0 20.0 20.0 20.0 20.0 20.0 20.0 20.0 20.0 20.0 20.1 20.1 20.1 20.1 20.1 20.1 20.1 20.1 20.2 20.2 20.1 20.1 20.1 20.1 20.1 20.1 20.1 20.1 20.1 20.1 20.1 20.1 20.1 20.1 20.0 20.0 20.1 20.2 20.2 20.2 20.2 20.2 20.2 20.2 20.2 20.3 20.3 20.2 20.2 20.2 20.2 20.1 20.1 20.1 20.1 20.1 20.1 20.1 20.1 20.1 20.1 20.0 20.2 20.2 20.3 20.3 20.3 20.3 20.3 20.3 20.3 20.4 20.4 20.3 20.3 20.2 20.2 20.2 20.2 20.2 20.2 20.2 20.2 20.2 20.2 20.1 20.1 20.0 20.3 20.3 20.4 20.4 20.4 20.4 20.4 20.4 20.4 20.5 20.5 20.4 20.3 20.3 20.3 20.3 20.3 20.3 20.3 20.3 20.3 20.3 20.2 20.1 20.1 20.0 20.4 20.4 20.5 20.5 20.5 20.5 20.5 20.5 20.6 20.6 20.6 20.5 20.4 20.4 20.4 20.4 20.4 20.4 20.4 20.4 20.4 20.3 20.2 20.1 20.1 20.0 20.5 20.5 20.6 20.6 20.7 20.7 20.7 20.7 20.8 20.8 20.7 20.6 20.5 20.5 20.5 20.5 20.5 20.5 20.5 20.5 20.4 20.3 20.2 20.1 20.1 20.0 20.6 20.7 20.7 20.8 20.8 20.8 20.8 20.8 20.9 20.9 20.8 20.7 20.7 20.7 20.6 20.6 20.6 20.6 20.6 20.5 20.4 20.3 20.2 20.1 20.1 20.0 20.7 20.8 20.9 21.0 21.0 21.0 21.0 21.0 21.0 21.0 20.9 20.8 20.8 20.8 20.7 20.7 20.7 20.7 20.7 20.5 20.4 20.3 20.2 20.2 20.1 20.0 20.9 21.0 21.1 21.2 21.2 21.2 21.2 21.2 21.3 21.2 21.1 21.0 21.0 20.9 20.9 20.9 20.9 20.8 20.7 20.5 20.4 20.3 20.3 20.2 20.1 20.1 21.0 21.1 21.3 21.4 21.4 21.4 21.4 21.5 21.5 21.4 21.3 21.2 21.1 21.1 21.1 21.1 21.0 20.8 20.7 20.6 20.5 20.4 20.3 20.2 20.1 20.1 21.2 21.3 21.5 21.6 21.6 21.7 21.7 21.8 21.8 21.6 21.5 21.4 21.3 21.3 21.3 21.2 21.0 20.8 20.7 20.6 20.5 20.4 20.3 20.2 20.1 20.1 21.4 21.5 21.7 21.8 21.9 22.1 22.1 22.1 22.0 21.9 21.7 21.6 21.6 21.6 21.5 21.2 21.0 20.9 20.8 20.6 20.5 20.4 20.3 20.2 20.1 20.1 21.6 21.8 22.0 22.2 22.3 22.5 22.5 22.5 22.4 22.2 22.0 22.0 21.9 21.8 21.5 21.3 21.1 21.0 20.8 20.7 20.6 20.5 20.3 20.2 20.1 20.1 21.9 22.1 22.3 22.6 22.7 23.0 23.1 23.0 23.0 22.7 22.4 22.3 22.2 21.9 21.6 21.4 21.2 21.0 20.9 20.7 20.6 20.5 20.4 20.3 20.1 20.1 22.2 22.4 22.7 23.0 23.3 23.7 23.8 23.7 23.5 23.1 22.9 22.7 22.4 22.0 21.7 21.5 21.3 21.1 20.9 20.8 20.6 20.5 20.4 20.3 20.1 20.1 22.5 22.8 23.1 23.5 23.9 24.5 24.8 24.4 24.1 23.8 23.4 23.0 22.5 22.1 21.9 21.6 21.4 21.2 21.0 20.8 20.7 20.6 20.4 20.3 20.1 20.1 23.0 23.3 23.7 24.2 24.7 25.4 25.8 25.5 25.1 24.5 23.9 23.2 22.7 22.3 22.0 21.7 21.5 21.3 21.1 20.9 20.8 20.6 20.5 20.3 20.2 20.1 23.5 23.9 24.5 25.3 25.9 26.6 27.2 27.0 26.3 25.3 24.3 23.5 23.0 22.6 22.2 22.0 21.7 21.5 21.3 21.1 20.9 20.7 20.5 20.4 20.2 20.1 24.1 24.6 25.5 28.2 32.6 33.5 31.5 30.0 28.1 26.2 24.9 24.2 23.5 23.0 22.7 22.3 21.9 21.6 21.4 21.2 21.0 20.8 20.6 20.4 20.2 20.1 25.1 25.8 27.0 31.0 37.2 39.6 35.0 32.7 30.3 27.2 25.9 25.1 24.2 23.5 23.1 22.6 22.1 21.7 21.4 21.2 20.9 20.7 20.5 20.4 20.2 20.1 26.1 27.3 28.9 33.0 36.0 20.0 20.0 35.1 32.2 28.3 26.8 25.7 24.6 23.8 23.2 22.7 22.2 21.8 21.4 21.1 20.9 20.7 20.5 20.4 20.2 20.1 26.5 28.1 30.1 34.6 37.8 20.0 20.0 37.2 33.5 28.8 26.9 25.5 24.6 23.8 23.1 22.6 22.2 21.8 21.5 21.1 20.8 20.6 20.5 20.3 20.2 20.1 26.2 27.7 29.6 33.1 36.3 41.6 39.4 33.7 31.5 28.2 26.3 24.8 24.1 23.5 22.9 22.4 22.1 21.8 21.4 21.1 20.9 20.7 20.5 20.4 20.2 20.1 25.1 26.2 27.5 29.6 32.2 36.0 34.7 29.7 27.6 26.5 25.2 24.1 23.4 23.0 22.6 22.2 22.0 21.7 21.4 21.1 20.9 20.7 20.5 20.4 20.2 20.1 23.3 24.8 25.6 26.9 28.0 28.9 28.9 27.1 25.7 24.9 24.1 23.5 22.9 22.5 22.2 21.9 21.7 21.5 21.2 21.0 20.8 20.6 20.4 20.3 20.1 20.1 20.0 20.0 20.0 20.0 20.0 20.1 20.1 20.1 20.1 20.1 20.1 20.1 20.0 20.0 20.0 20.0 20.0 20.0 20.0 20.0 20.0 20.0 20.0 20.0 20.0 20.0 20.1 20.1 20.1 20.1 20.1 20.1 20.1 20.1 20.1 20.1 20.1 20.1 20.1 20.1 20.1 20.1 20.1 20.1 20.1 20.1 20.1 20.0 20.0 20.1 20.0 20.0 20.1 20.1 20.1 20.2 20.2 20.2 20.2 20.2 20.2 20.2 20.2 20.2 20.2 20.1 20.1 20.1 20.1 20.1 20.1 20.1 20.1 20.1 20.1 20.1 20.1 20.0 20.2 20.2 20.2 20.3 20.3 20.3 20.3 20.3 20.3 20.4 20.3 20.3 20.2 20.2 20.2 20.2 20.2 20.2 20.2 20.2 20.2 20.2 20.2 20.1 20.1 20.0 20.3 20.3 20.3 20.4 20.4 20.4 20.4 20.4 20.4 20.5 20.4 20.4 20.3 20.3 20.3 20.3 20.3 20.3 20.2 20.3 20.3 20.3 20.2 20.1 20.1 20.0 20.4 20.4 20.4 20.5 20.5 20.5 20.5 20.5 20.6 20.6 20.5 20.4 20.4 20.4 20.4 20.4 20.4 20.3 20.3 20.4 20.4 20.3 20.2 20.1 20.1 20.0 20.5 20.5 20.6 20.6 20.6 20.6 20.6 20.7 20.7 20.7 20.6 20.5 20.5 20.5 20.5 20.5 20.4 20.4 20.5 20.5 20.4 20.3 20.2 20.1 20.1 20.0 20.6 20.6 20.7 20.8 20.8 20.8 20.8 20.8 20.9 20.8 20.7 20.7 20.6 20.6 20.6 20.6 20.6 20.6 20.6 20.5 20.4 20.3 20.2 20.1 20.1 20.0 20.7 20.8 20.9 20.9 21.0 21.0 21.0 21.0 21.0 21.0 20.9 20.8 20.8 20.7 20.7 20.7 20.7 20.7 20.6 20.5 20.4 20.3 20.2 20.1 20.1 20.0 20.8 20.9 21.0 21.1 21.2 21.2 21.2 21.2 21.2 21.2 21.0 21.0 20.9 20.9 20.9 20.9 20.9 20.8 20.6 20.5 20.4 20.3 20.2 20.2 20.1 20.0 21.0 21.1 21.2 21.3 21.4 21.4 21.4 21.5 21.5 21.4 21.2 21.1 21.1 21.1 21.1 21.1 21.0 20.8 20.6 20.5 20.4 20.3 20.2 20.2 20.1 20.1 21.2 21.3 21.4 21.6 21.7 21.7 21.8 21.8 21.7 21.6 21.4 21.4 21.3 21.3 21.3 21.2 21.0 20.8 20.7 20.6 20.5 20.4 20.3 20.2 20.1 20.1 21.4 21.5 21.7 21.9 22.0 22.1 22.2 22.1 22.0 21.9 21.7 21.6 21.6 21.6 21.5 21.2 21.0 20.8 20.7 20.6 20.5 20.4 20.3 20.2 20.1 20.1 21.6 21.8 22.0 22.2 22.4 22.5 22.6 22.6 22.4 22.2 22.1 22.0 22.0 21.8 21.5 21.3 21.1 20.9 20.8 20.7 20.5 20.4 20.3 20.2 20.1 20.1 21.9 22.1 22.3 22.7 22.9 23.1 23.3 23.2 23.0 22.7 22.5 22.4 22.2 21.9 21.6 21.4 21.2 21.0 20.8 20.7 20.6 20.5 20.3 20.2 20.1 20.1 22.2 22.5 22.8 23.2 23.5 23.9 24.1 23.9 23.5 23.2 23.0 22.8 22.4 22.0 21.7 21.5 21.3 21.1 20.9 20.7 20.6 20.5 20.4 20.2 20.1 20.1 22.6 22.9 23.3 23.8 24.3 24.9 25.1 24.7 24.2 23.9 23.5 23.1 22.6 22.2 21.9 21.6 21.3 21.1 20.9 20.8 20.7 20.5 20.4 20.3 20.1 20.1 23.1 23.4 23.9 24.8 25.5 26.1 26.4 26.0 25.3 24.7 24.0 23.3 22.8 22.4 22.0 21.7 21.5 21.2 21.1 20.9 20.8 20.6 20.5 20.3 20.2 20.1 23.7 24.2 24.9 26.7 28.8 29.0 28.6 27.9 26.6 25.5 24.5 23.7 23.1 22.6 22.3 21.9 21.7 21.5 21.3 21.1 20.9 20.7 20.5 20.3 20.2 20.1 24.3 25.0 26.9 35.1 57.7 57.4 37.7 31.7 28.4 26.4 25.1 24.3 23.6 23.1 22.7 22.3 22.0 21.7 21.4 21.2 21.0 20.8 20.6 20.4 20.2 20.1 25.3 26.1 29.0 43.4 113.5 159.4 134.2 80.5 32.2 27.6 26.1 25.2 24.3 23.6 23.1 22.6 22.2 21.7 21.4 21.2 20.9 20.7 20.5 20.4 20.2 20.1 26.7 27.8 30.1 41.3 125.7 345.3 373.1 142.3 39.6 29.5 27.2 26.0 24.8 23.9 23.3 22.8 22.3 21.8 21.4 21.2 20.9 20.7 20.5 20.3 20.2 20.1 27.5 28.8 30.8 39.5 84.7 278.6 326.7 119.7 42.0 30.6 27.5 26.0 24.9 24.0 23.2 22.7 22.2 21.8 21.5 21.2 20.9 20.6 20.5 20.3 20.2 20.1 26.6 27.8 30.0 38.2 53.9 90.1 103.2 61.9 35.0 29.3 26.8 25.2 24.3 23.6 22.9 22.5 22.1 21.8 21.4 21.1 20.9 20.7 20.5 20.3 20.2 20.1 25.1 26.1 27.6 31.8 35.9 39.4 38.4 32.4 28.7 26.9 25.5 24.3 23.6 23.0 22.6 22.2 21.9 21.6 21.3 21.1 20.8 20.7 20.5 20.3 20.2 20.1 23.4 25.1 26.1 27.5 29.0 30.1 29.9 28.0 26.3 25.2 24.4 23.6 23.0 22.6 22.2 21.9 21.7 21.4 21.2 21.0 20.8 20.6 20.4 20.3 20.1 20.1 20.0 20.0 20.0 20.0 20.0 20.0 20.0 20.1 20.1 20.0 20.1 20.0 20.0 20.0 20.0 20.0 20.0 20.0 20.0 20.0 20.0 20.0 20.0 20.0 20.0 20.0 20.1 20.1 20.1 20.1 20.1 20.1 20.1 20.1 20.1 20.1 20.1 20.1 20.1 20.1 20.1 20.1 20.1 20.1 20.0 20.0 20.0 20.0 20.0 20.0 20.0 20.0 20.1 20.1 20.1 20.2 20.2 20.2 20.2 20.2 20.2 20.2 20.2 20.2 20.1 20.1 20.1 20.1 20.1 20.1 20.1 20.1 20.1 20.1 20.1 20.1 20.0 20.0 20.2 20.2 20.2 20.2 20.3 20.3 20.3 20.3 20.3 20.3 20.3 20.2 20.2 20.2 20.2 20.2 20.2 20.2 20.1 20.1 20.2 20.2 20.2 20.1 20.0 20.0 20.3 20.3 20.3 20.3 20.4 20.4 20.4 20.4 20.4 20.4 20.4 20.3 20.3 20.3 20.3 20.2 20.2 20.2 20.2 20.2 20.3 20.2 20.2 20.1 20.0 20.0 20.4 20.4 20.4 20.5 20.5 20.5 20.5 20.5 20.5 20.5 20.5 20.4 20.4 20.3 20.3 20.3 20.3 20.3 20.3 20.4 20.3 20.3 20.2 20.1 20.0 20.0 20.4 20.5 20.5 20.6 20.6 20.6 20.6 20.6 20.7 20.6 20.5 20.5 20.5 20.4 20.4 20.4 20.4 20.4 20.5 20.5 20.4 20.3 20.2 20.1 20.1 20.0 20.5 20.6 20.7 20.7 20.8 20.8 20.8 20.8 20.8 20.8 20.7 20.6 20.6 20.6 20.5 20.5 20.5 20.6 20.6 20.5 20.3 20.2 20.2 20.1 20.1 20.0 20.7 20.7 20.8 20.9 20.9 21.0 21.0 21.0 21.0 20.9 20.8 20.7 20.7 20.7 20.6 20.7 20.7 20.7 20.6 20.4 20.3 20.2 20.2 20.1 20.1 20.0 20.8 20.9 21.0 21.1 21.1 21.2 21.2 21.2 21.2 21.1 21.0 20.9 20.8 20.8 20.8 20.9 20.9 20.7 20.6 20.4 20.3 20.3 20.2 20.1 20.1 20.0 21.0 21.1 21.2 21.3 21.4 21.5 21.5 21.5 21.5 21.3 21.2 21.1 21.0 21.0 21.1 21.1 20.9 20.7 20.5 20.4 20.4 20.3 20.2 20.1 20.1 20.0 21.1 21.3 21.4 21.6 21.7 21.8 21.9 21.9 21.7 21.6 21.4 21.3 21.3 21.3 21.3 21.2 20.9 20.7 20.6 20.5 20.4 20.3 20.2 20.1 20.1 20.0 21.4 21.5 21.7 21.9 22.1 22.2 22.3 22.3 22.1 21.9 21.7 21.6 21.7 21.6 21.5 21.2 20.9 20.8 20.6 20.5 20.4 20.3 20.2 20.2 20.1 20.0 21.6 21.8 22.0 22.3 22.5 22.7 22.9 22.8 22.5 22.3 22.2 22.1 22.0 21.8 21.5 21.2 21.0 20.9 20.7 20.6 20.5 20.4 20.3 20.2 20.1 20.1 22.0 22.1 22.4 22.8 23.1 23.5 23.6 23.5 23.1 22.8 22.7 22.5 22.3 22.0 21.6 21.3 21.1 20.9 20.8 20.6 20.5 20.4 20.3 20.2 20.1 20.1 22.3 22.6 22.9 23.4 23.9 24.3 24.6 24.3 23.8 23.4 23.2 22.9 22.5 22.1 21.7 21.4 21.2 21.0 20.8 20.7 20.5 20.4 20.3 20.2 20.1 20.1 22.8 23.1 23.6 24.3 25.0 25.7 26.0 25.4 24.6 24.2 23.8 23.2 22.7 22.2 21.9 21.6 21.3 21.1 20.9 20.7 20.6 20.5 20.3 20.2 20.1 20.1 23.4 23.8 24.4 26.9 28.2 28.1 28.7 27.4 25.7 25.1 24.4 23.6 23.0 22.5 22.1 21.7 21.4 21.2 21.0 20.8 20.7 20.6 20.4 20.3 20.1 20.1 24.0 24.7 26.1 32.8 36.9 34.7 35.3 32.8 27.7 26.0 25.0 24.1 23.3 22.8 22.3 22.0 21.6 21.4 21.2 21.0 20.8 20.7 20.5 20.3 20.2 20.1 24.8 25.8 31.1 59.0 103.1 93.3 54.7 39.7 30.3 27.0 25.6 24.6 23.8 23.2 22.7 22.3 21.9 21.6 21.3 21.1 20.9 20.7 20.5 20.3 20.2 20.1 25.9 27.3 34.9 80.3 199.1 227.9 176.9 121.5 49.0 29.7 26.7 25.5 24.6 23.8 23.2 22.6 22.2 21.7 21.4 21.1 20.9 20.7 20.5 20.3 20.2 20.1 27.6 29.2 34.6 69.2 209.2 361.0 373.0 238.1 86.0 34.1 28.2 26.6 25.3 24.2 23.4 22.8 22.3 21.8 21.5 21.2 20.9 20.7 20.5 20.3 20.1 20.1 28.7 30.6 35.3 64.3 176.9 354.9 386.6 232.0 88.9 35.8 29.0 27.0 25.5 24.3 23.5 22.8 22.3 21.9 21.5 21.2 20.9 20.6 20.4 20.3 20.1 20.1 27.4 29.1 34.0 59.1 116.5 192.4 201.3 121.8 54.4 32.4 27.9 26.2 24.9 24.0 23.2 22.6 22.1 21.8 21.5 21.2 20.9 20.6 20.5 20.3 20.2 20.1 25.4 26.5 29.3 39.3 48.2 62.4 63.6 44.4 33.0 28.0 26.1 24.9 24.0 23.3 22.7 22.2 21.9 21.6 21.3 21.1 20.8 20.6 20.5 20.3 20.2 20.1 23.6 25.5 26.7 28.8 31.5 33.3 33.1 30.8 27.9 26.0 24.9 24.0 23.3 22.8 22.3 21.9 21.6 21.4 21.1 20.9 20.7 20.6 20.4 20.3 20.1 20.1 20.0 20.0 20.0 20.0 20.0 20.0 20.0 20.1 20.1 20.0 20.0 20.0 20.0 20.0 20.0 20.0 20.0 20.0 20.0 20.0 20.0 20.0 20.0 20.0 20.0 20.0 20.1 20.1 20.1 20.1 20.1 20.1 20.1 20.1 20.1 20.1 20.1 20.1 20.1 20.1 20.1 20.1 20.1 20.0 20.0 20.0 20.0 20.0 20.0 20.0 20.0 20.0 20.1 20.1 20.1 20.2 20.2 20.2 20.2 20.2 20.2 20.2 20.2 20.1 20.1 20.1 20.1 20.1 20.1 20.1 20.1 20.1 20.1 20.1 20.1 20.1 20.0 20.0 20.2 20.2 20.2 20.3 20.3 20.3 20.3 20.3 20.3 20.3 20.3 20.2 20.2 20.2 20.2 20.2 20.2 20.2 20.1 20.1 20.1 20.2 20.1 20.1 20.0 20.0 20.3 20.3 20.3 20.4 20.4 20.4 20.4 20.4 20.4 20.4 20.3 20.3 20.3 20.3 20.3 20.2 20.2 20.2 20.2 20.2 20.2 20.2 20.2 20.1 20.0 20.0 20.4 20.4 20.4 20.5 20.5 20.5 20.5 20.5 20.5 20.5 20.4 20.4 20.4 20.3 20.3 20.3 20.3 20.3 20.3 20.3 20.3 20.3 20.2 20.1 20.0 20.0 20.5 20.5 20.6 20.6 20.6 20.6 20.6 20.7 20.7 20.6 20.5 20.5 20.5 20.5 20.4 20.4 20.4 20.4 20.5 20.4 20.4 20.2 20.2 20.1 20.0 20.0 20.6 20.6 20.7 20.8 20.8 20.8 20.8 20.9 20.8 20.8 20.7 20.6 20.6 20.6 20.6 20.5 20.5 20.6 20.6 20.5 20.3 20.2 20.2 20.1 20.1 20.0 20.7 20.8 20.9 21.0 21.0 21.0 21.0 21.1 21.0 20.9 20.8 20.8 20.7 20.7 20.7 20.7 20.7 20.7 20.6 20.4 20.3 20.2 20.2 20.1 20.1 20.0 20.8 20.9 21.0 21.1 21.2 21.2 21.3 21.3 21.2 21.1 21.0 20.9 20.9 20.8 20.9 20.9 20.9 20.8 20.6 20.4 20.3 20.3 20.2 20.1 20.1 20.0 21.0 21.1 21.2 21.4 21.5 21.5 21.6 21.6 21.5 21.3 21.2 21.1 21.1 21.1 21.1 21.1 20.9 20.7 20.6 20.4 20.4 20.3 20.2 20.1 20.1 20.0 21.2 21.3 21.5 21.6 21.8 21.9 21.9 22.0 21.8 21.6 21.4 21.4 21.4 21.4 21.3 21.2 20.9 20.7 20.6 20.5 20.4 20.3 20.2 20.1 20.1 20.0 21.4 21.6 21.7 21.9 22.1 22.3 22.4 22.4 22.1 21.9 21.8 21.7 21.7 21.6 21.5 21.2 20.9 20.8 20.7 20.5 20.4 20.3 20.2 20.2 20.1 20.0 21.7 21.9 22.0 22.3 22.6 22.8 23.0 22.9 22.6 22.3 22.2 22.2 22.1 21.8 21.5 21.2 21.0 20.9 20.7 20.6 20.5 20.4 20.3 20.2 20.1 20.0 22.0 22.2 22.5 22.8 23.2 23.5 23.8 23.6 23.2 22.9 22.7 22.6 22.4 22.0 21.6 21.3 21.1 21.0 20.8 20.7 20.5 20.4 20.3 20.2 20.1 20.1 22.4 22.7 23.3 23.8 24.0 24.4 24.8 24.6 24.0 23.6 23.4 23.0 22.6 22.1 21.8 21.5 21.3 21.1 20.9 20.7 20.6 20.4 20.3 20.2 20.1 20.1 22.9 23.4 24.5 25.3 25.8 27.1 27.3 26.1 25.1 24.5 24.0 23.4 22.9 22.3 22.0 21.7 21.4 21.1 20.9 20.8 20.6 20.5 20.3 20.2 20.1 20.1 23.6 24.4 26.1 28.7 29.6 31.0 32.2 29.3 26.4 25.5 24.7 23.9 23.2 22.6 22.2 21.8 21.5 21.2 21.0 20.8 20.7 20.5 20.4 20.3 20.1 20.1 24.4 26.1 30.3 36.9 39.3 41.8 46.7 40.7 30.4 26.7 25.4 24.4 23.6 22.9 22.4 22.0 21.7 21.4 21.2 20.9 20.8 20.6 20.4 20.3 20.2 20.1 26.7 31.3 42.1 78.6 121.4 106.2 72.5 54.7 35.6 28.3 26.2 25.0 24.1 23.4 22.8 22.3 21.9 21.6 21.3 21.1 20.9 20.7 20.5 20.3 20.2 20.1 29.1 36.6 61.5 139.8 245.6 231.5 164.8 125.8 63.4 32.0 27.6 25.9 24.8 23.9 23.2 22.7 22.2 21.8 21.4 21.1 20.9 20.7 20.5 20.3 20.2 20.1 29.8 36.7 66.7 151.6 287.0 360.5 349.4 260.6 114.3 40.0 30.1 27.3 25.8 24.5 23.6 22.9 22.4 21.9 21.5 21.2 20.9 20.7 20.5 20.3 20.1 20.1 30.2 35.9 63.9 146.0 286.2 415.3 438.4 318.8 145.2 51.6 32.3 27.9 26.2 24.8 23.8 23.0 22.4 21.9 21.5 21.2 20.9 20.7 20.5 20.3 20.1 20.1 28.7 32.5 52.7 110.0 191.2 272.0 292.7 216.6 111.7 49.2 30.7 26.9 25.5 24.5 23.5 22.8 22.2 21.8 21.5 21.2 20.9 20.7 20.5 20.3 20.2 20.1 26.1 27.4 33.4 49.0 63.6 88.0 104.9 85.1 54.7 34.3 27.2 25.5 24.4 23.7 23.0 22.4 22.0 21.6 21.3 21.1 20.9 20.7 20.5 20.3 20.2 20.1 23.8 25.9 27.3 30.0 34.1 37.1 38.6 37.9 32.4 27.2 25.4 24.4 23.6 23.0 22.5 22.0 21.7 21.4 21.2 21.0 20.8 20.6 20.4 20.3 20.1 20.1 20.0 20.0 20.0 20.0 20.0 20.0 20.1 20.1 20.1 20.1 20.1 20.0 20.0 20.0 20.0 20.0 20.0 20.0 20.0 20.0 20.0 20.0 20.0 20.0 20.0 20.0 20.1 20.1 20.1 20.1 20.1 20.1 20.1 20.1 20.1 20.1 20.1 20.1 20.1 20.1 20.1 20.1 20.1 20.1 20.1 20.1 20.0 20.0 20.0 20.0 20.0 20.0 20.1 20.2 20.2 20.2 20.2 20.2 20.2 20.2 20.2 20.2 20.2 20.2 20.1 20.1 20.1 20.1 20.1 20.1 20.1 20.1 20.1 20.1 20.1 20.1 20.0 20.0 20.2 20.2 20.3 20.3 20.3 20.3 20.3 20.3 20.3 20.3 20.3 20.3 20.2 20.2 20.2 20.2 20.2 20.2 20.2 20.2 20.2 20.2 20.2 20.1 20.0 20.0 20.3 20.3 20.4 20.4 20.4 20.4 20.4 20.4 20.4 20.4 20.4 20.3 20.3 20.3 20.3 20.3 20.3 20.3 20.3 20.3 20.3 20.2 20.2 20.1 20.0 20.0 20.4 20.4 20.5 20.5 20.5 20.5 20.5 20.6 20.6 20.6 20.5 20.4 20.4 20.4 20.4 20.4 20.4 20.4 20.4 20.4 20.3 20.3 20.2 20.1 20.0 20.0 20.5 20.6 20.6 20.7 20.7 20.7 20.7 20.7 20.7 20.7 20.6 20.6 20.5 20.5 20.5 20.5 20.5 20.5 20.5 20.5 20.4 20.3 20.2 20.1 20.1 20.0 20.6 20.7 20.8 20.8 20.8 20.8 20.9 20.9 20.9 20.8 20.8 20.7 20.7 20.7 20.6 20.6 20.6 20.6 20.6 20.5 20.4 20.3 20.2 20.1 20.1 20.0 20.8 20.9 20.9 21.0 21.1 21.0 21.1 21.1 21.1 21.0 20.9 20.9 20.8 20.8 20.8 20.8 20.8 20.7 20.6 20.5 20.4 20.3 20.2 20.1 20.1 20.0 20.9 21.0 21.1 21.2 21.3 21.3 21.3 21.4 21.3 21.2 21.1 21.0 21.0 21.0 20.9 20.9 20.9 20.8 20.6 20.5 20.4 20.3 20.2 20.1 20.1 20.0 21.1 21.2 21.3 21.5 21.5 21.6 21.6 21.7 21.6 21.4 21.3 21.3 21.2 21.2 21.2 21.1 21.0 20.8 20.6 20.5 20.4 20.3 20.2 20.2 20.1 20.0 21.3 21.4 21.5 21.7 21.8 21.9 22.0 22.0 21.9 21.7 21.6 21.5 21.4 21.4 21.4 21.2 21.0 20.8 20.7 20.6 20.5 20.4 20.3 20.2 20.1 20.0 21.5 21.6 21.8 22.0 22.2 22.3 22.4 22.4 22.3 22.1 21.9 21.8 21.7 21.7 21.5 21.3 21.0 20.9 20.8 20.6 20.5 20.4 20.3 20.2 20.1 20.0 21.8 21.9 22.1 22.4 22.6 22.8 22.9 22.9 22.7 22.5 22.3 22.2 22.1 21.9 21.6 21.3 21.1 21.0 20.9 20.7 20.6 20.4 20.3 20.2 20.1 20.1 22.1 22.3 22.5 22.8 23.1 23.4 23.7 23.7 23.3 23.0 22.8 22.7 22.4 22.1 21.7 21.5 21.3 21.1 20.9 20.8 20.6 20.5 20.3 20.2 20.1 20.1 22.5 22.9 23.5 24.0 24.0 24.2 24.6 24.6 24.1 23.7 23.5 23.1 22.6 22.2 21.9 21.6 21.4 21.2 21.0 20.8 20.7 20.5 20.3 20.2 20.1 20.1 23.1 24.5 26.1 26.1 26.0 27.2 27.5 26.3 25.3 24.7 24.1 23.5 23.0 22.5 22.1 21.8 21.5 21.3 21.1 20.9 20.7 20.5 20.4 20.2 20.1 20.1 23.8 27.5 30.3 29.2 27.6 30.3 33.3 30.1 26.8 25.6 24.8 24.0 23.4 22.8 22.3 21.9 21.6 21.4 21.1 20.9 20.7 20.6 20.4 20.3 20.1 20.1 25.0 32.2 37.7 36.1 32.1 39.1 49.2 43.2 32.6 27.0 25.5 24.5 23.7 23.1 22.6 22.2 21.8 21.5 21.3 21.0 20.8 20.6 20.5 20.3 20.2 20.1 29.0 41.4 56.8 83.3 90.5 75.7 73.8 62.3 41.4 29.7 26.5 25.2 24.2 23.5 22.9 22.5 22.1 21.7 21.4 21.2 20.9 20.7 20.5 20.3 20.2 20.1 32.3 53.0 107.1 189.9 195.5 149.7 142.7 110.6 57.2 32.5 28.1 26.3 25.0 24.1 23.4 22.8 22.3 21.9 21.5 21.2 21.0 20.7 20.5 20.3 20.2 20.1 32.5 56.3 134.7 241.6 240.6 231.0 270.5 195.4 85.8 42.3 31.0 27.7 26.1 24.7 23.8 23.0 22.5 22.0 21.6 21.3 21.0 20.7 20.5 20.3 20.2 20.1 34.2 60.6 135.0 236.5 239.4 287.0 379.8 298.2 158.9 70.9 34.9 28.2 26.4 25.1 24.0 23.1 22.5 22.0 21.6 21.3 21.0 20.7 20.5 20.3 20.2 20.1 33.3 56.2 107.3 169.3 174.2 222.1 311.5 280.6 167.7 70.6 33.1 27.2 25.6 24.6 23.7 23.0 22.4 21.9 21.6 21.2 21.0 20.7 20.5 20.3 20.2 20.1 29.0 38.6 52.1 64.8 73.1 93.2 131.7 133.2 82.3 39.9 27.8 25.7 24.5 23.8 23.1 22.6 22.1 21.8 21.5 21.2 21.0 20.7 20.5 20.3 20.2 20.1 25.0 30.2 32.0 32.4 36.6 40.9 46.0 46.6 36.5 27.9 25.7 24.6 23.8 23.2 22.7 22.2 21.9 21.6 21.3 21.1 20.9 20.7 20.5 20.3 20.1 20.1 20.0 20.0 20.0 20.1 20.1 20.1 20.1 20.1 20.1 20.1 20.1 20.1 20.0 20.0 20.0 20.0 20.0 20.0 20.0 20.0 20.0 20.0 20.0 20.0 20.0 20.0 20.1 20.1 20.1 20.1 20.1 20.1 20.1 20.1 20.1 20.1 20.1 20.1 20.1 20.1 20.1 20.1 20.1 20.1 20.1 20.1 20.1 20.1 20.1 20.1 20.0 20.0 20.2 20.2 20.2 20.2 20.2 20.2 20.2 20.2 20.2 20.2 20.2 20.2 20.2 20.2 20.2 20.2 20.2 20.1 20.1 20.1 20.1 20.1 20.1 20.1 20.1 20.0 20.3 20.3 20.3 20.3 20.3 20.3 20.3 20.3 20.3 20.3 20.3 20.3 20.3 20.3 20.3 20.2 20.2 20.2 20.2 20.2 20.2 20.2 20.2 20.1 20.1 20.0 20.4 20.4 20.4 20.4 20.4 20.4 20.4 20.5 20.5 20.5 20.4 20.4 20.4 20.4 20.3 20.3 20.3 20.3 20.3 20.3 20.3 20.3 20.2 20.1 20.1 20.0 20.5 20.5 20.5 20.6 20.6 20.5 20.6 20.6 20.6 20.6 20.6 20.5 20.5 20.5 20.5 20.4 20.4 20.4 20.4 20.4 20.4 20.3 20.2 20.1 20.1 20.0 20.6 20.6 20.7 20.7 20.7 20.7 20.7 20.8 20.8 20.7 20.7 20.6 20.6 20.6 20.6 20.6 20.6 20.5 20.5 20.5 20.4 20.3 20.2 20.1 20.1 20.0 20.7 20.8 20.8 20.9 20.9 20.9 20.9 21.0 21.0 20.9 20.8 20.8 20.7 20.7 20.7 20.7 20.7 20.7 20.6 20.5 20.4 20.3 20.2 20.1 20.1 20.0 20.8 20.9 21.0 21.1 21.1 21.1 21.1 21.2 21.2 21.1 21.0 21.0 20.9 20.9 20.9 20.9 20.8 20.7 20.7 20.6 20.4 20.3 20.2 20.2 20.1 20.0 21.0 21.1 21.2 21.3 21.3 21.3 21.4 21.4 21.4 21.3 21.2 21.2 21.1 21.1 21.0 21.0 20.9 20.8 20.7 20.6 20.5 20.4 20.3 20.2 20.1 20.0 21.2 21.2 21.4 21.5 21.5 21.6 21.6 21.7 21.7 21.6 21.5 21.4 21.3 21.3 21.2 21.1 21.0 20.9 20.8 20.6 20.5 20.4 20.3 20.2 20.1 20.0 21.4 21.5 21.6 21.7 21.8 21.9 22.0 22.1 22.0 21.9 21.8 21.6 21.6 21.5 21.4 21.2 21.1 20.9 20.8 20.7 20.6 20.4 20.3 20.2 20.1 20.1 21.6 21.7 21.9 22.0 22.2 22.2 22.4 22.5 22.4 22.2 22.1 21.9 21.8 21.7 21.5 21.3 21.2 21.1 20.9 20.8 20.6 20.5 20.3 20.2 20.1 20.1 21.9 22.0 22.2 22.4 22.5 22.7 22.9 22.9 22.8 22.6 22.4 22.3 22.1 21.9 21.7 21.5 21.3 21.2 21.0 20.8 20.6 20.5 20.4 20.2 20.1 20.1 22.2 22.4 22.6 22.8 23.0 23.3 23.6 23.6 23.4 23.1 22.9 22.7 22.4 22.1 21.9 21.6 21.4 21.2 21.0 20.9 20.7 20.5 20.4 20.2 20.1 20.1 22.6 23.0 23.4 23.7 23.8 23.9 24.3 24.4 24.1 23.8 23.5 23.1 22.7 22.4 22.1 21.8 21.6 21.3 21.1 20.9 20.7 20.5 20.4 20.2 20.1 20.1 23.5 25.1 26.0 25.8 25.4 25.8 26.4 25.9 25.2 24.6 24.1 23.5 23.1 22.7 22.3 22.0 21.7 21.4 21.2 21.0 20.8 20.6 20.4 20.3 20.1 20.1 25.3 29.8 31.4 27.9 26.1 28.7 31.0 29.1 26.6 25.5 24.7 24.0 23.4 22.9 22.5 22.1 21.8 21.5 21.3 21.0 20.8 20.6 20.5 20.3 20.2 20.1 30.1 39.3 40.4 31.9 27.2 33.2 40.6 40.3 33.8 27.3 25.6 24.6 23.8 23.2 22.7 22.3 22.0 21.7 21.4 21.2 20.9 20.7 20.5 20.3 20.2 20.1 40.3 57.3 66.1 64.4 47.1 44.5 61.0 62.5 46.4 30.3 26.7 25.3 24.3 23.6 23.1 22.6 22.2 21.9 21.6 21.3 21.0 20.8 20.6 20.4 20.2 20.1 47.4 86.8 144.3 151.5 91.4 82.0 112.6 92.0 51.5 32.4 28.0 26.4 25.2 24.2 23.5 22.9 22.4 22.0 21.6 21.3 21.0 20.8 20.6 20.4 20.2 20.1 50.9 104.8 196.1 201.3 128.0 150.0 191.8 134.3 65.1 39.5 30.5 27.6 26.2 24.9 23.9 23.1 22.5 22.1 21.7 21.3 21.0 20.8 20.5 20.3 20.2 20.1 60.0 118.2 202.9 198.9 148.9 222.8 294.9 242.9 147.2 68.7 34.1 28.0 26.3 25.1 24.0 23.2 22.6 22.1 21.7 21.3 21.0 20.7 20.5 20.3 20.2 20.1 52.0 102.7 161.5 155.6 129.2 189.2 275.2 275.2 177.9 71.7 32.5 27.1 25.5 24.6 23.8 23.1 22.5 22.0 21.7 21.3 21.0 20.8 20.5 20.3 20.2 20.1 33.2 56.3 74.6 72.3 72.3 91.4 137.7 152.3 95.5 41.0 27.7 25.7 24.5 23.9 23.3 22.8 22.3 21.9 21.6 21.3 21.0 20.8 20.6 20.4 20.2 20.1 25.8 35.4 38.6 34.6 38.7 47.8 58.8 56.8 39.1 28.2 25.9 24.8 23.9 23.3 22.9 22.4 22.0 21.7 21.4 21.2 20.9 20.7 20.5 20.3 20.2 20.1 20.0 20.1 20.1 20.1 20.1 20.1 20.1 20.1 20.1 20.1 20.1 20.1 20.0 20.0 20.0 20.0 20.0 20.0 20.0 20.0 20.0 20.0 20.0 20.0 20.0 20.0 20.1 20.1 20.1 20.1 20.1 20.1 20.1 20.1 20.1 20.1 20.1 20.1 20.1 20.1 20.1 20.1 20.1 20.1 20.1 20.1 20.1 20.1 20.1 20.1 20.1 20.0 20.2 20.2 20.2 20.2 20.2 20.2 20.2 20.2 20.3 20.3 20.2 20.2 20.2 20.2 20.2 20.2 20.2 20.2 20.2 20.2 20.2 20.2 20.2 20.1 20.1 20.0 20.3 20.3 20.3 20.3 20.3 20.3 20.3 20.4 20.4 20.4 20.4 20.3 20.3 20.3 20.3 20.3 20.3 20.3 20.3 20.3 20.3 20.3 20.2 20.2 20.1 20.0 20.4 20.4 20.4 20.4 20.4 20.4 20.4 20.5 20.5 20.5 20.5 20.4 20.4 20.4 20.4 20.4 20.4 20.4 20.4 20.4 20.4 20.3 20.3 20.2 20.1 20.0 20.5 20.5 20.6 20.6 20.6 20.5 20.6 20.6 20.7 20.6 20.6 20.6 20.5 20.5 20.5 20.5 20.5 20.5 20.5 20.5 20.4 20.4 20.3 20.2 20.1 20.0 20.6 20.6 20.7 20.7 20.7 20.7 20.7 20.8 20.8 20.8 20.7 20.7 20.7 20.7 20.7 20.7 20.6 20.6 20.6 20.5 20.5 20.4 20.3 20.2 20.1 20.0 20.7 20.8 20.8 20.9 20.9 20.9 20.9 21.0 21.0 21.0 20.9 20.9 20.8 20.8 20.8 20.8 20.8 20.7 20.7 20.6 20.5 20.4 20.3 20.2 20.1 20.0 20.9 20.9 21.0 21.1 21.1 21.0 21.1 21.2 21.2 21.2 21.1 21.1 21.0 21.0 21.0 20.9 20.9 20.8 20.7 20.6 20.5 20.4 20.3 20.2 20.1 20.0 21.0 21.1 21.2 21.3 21.3 21.3 21.3 21.4 21.5 21.4 21.3 21.3 21.2 21.2 21.1 21.1 21.0 20.9 20.8 20.7 20.5 20.4 20.3 20.2 20.1 20.1 21.2 21.3 21.4 21.5 21.5 21.6 21.6 21.7 21.7 21.7 21.6 21.5 21.4 21.4 21.3 21.2 21.1 21.0 20.9 20.7 20.6 20.4 20.3 20.2 20.1 20.1 21.4 21.5 21.6 21.7 21.8 21.8 22.0 22.1 22.0 22.0 21.9 21.8 21.6 21.5 21.4 21.3 21.2 21.1 20.9 20.8 20.6 20.5 20.3 20.2 20.1 20.1 21.7 21.7 21.8 22.0 22.1 22.2 22.4 22.5 22.4 22.3 22.2 22.0 21.9 21.7 21.6 21.4 21.3 21.2 21.0 20.8 20.6 20.5 20.4 20.2 20.1 20.1 22.0 22.1 22.2 22.3 22.4 22.6 22.8 22.9 22.9 22.7 22.5 22.3 22.2 22.0 21.8 21.6 21.4 21.3 21.1 20.9 20.7 20.5 20.4 20.2 20.1 20.1 22.3 22.4 22.6 22.7 22.9 23.1 23.5 23.5 23.4 23.2 23.0 22.7 22.4 22.2 22.0 21.8 21.6 21.3 21.1 20.9 20.7 20.5 20.4 20.3 20.1 20.1 23.0 23.4 23.5 23.4 23.5 23.7 24.1 24.3 24.1 23.8 23.5 23.1 22.7 22.5 22.2 21.9 21.7 21.4 21.2 20.9 20.7 20.6 20.4 20.3 20.1 20.1 24.5 25.6 25.4 25.0 24.8 25.0 25.4 25.4 24.9 24.4 24.0 23.5 23.1 22.7 22.4 22.1 21.8 21.5 21.2 21.0 20.8 20.6 20.4 20.3 20.1 20.1 27.1 29.7 28.3 25.5 26.2 28.0 28.2 27.3 26.1 25.3 24.6 24.0 23.4 23.0 22.6 22.3 21.9 21.6 21.3 21.1 20.9 20.7 20.5 20.3 20.2 20.1 33.3 40.4 35.0 26.7 28.7 31.8 33.1 36.5 33.2 27.1 25.5 24.6 23.9 23.3 22.9 22.5 22.1 21.8 21.5 21.2 21.0 20.7 20.5 20.3 20.2 20.1 53.7 68.7 57.1 37.6 37.9 42.1 49.9 61.5 47.9 29.9 26.5 25.3 24.4 23.7 23.2 22.7 22.3 21.9 21.6 21.3 21.0 20.8 20.6 20.4 20.2 20.1 74.4 121.0 119.7 73.0 66.0 82.6 92.5 87.2 53.2 32.2 27.7 26.2 25.2 24.3 23.6 23.0 22.5 22.1 21.7 21.4 21.1 20.8 20.6 20.4 20.2 20.1 82.6 152.5 161.2 113.2 133.2 175.1 164.1 122.6 67.0 36.0 29.6 27.1 25.9 24.9 24.0 23.2 22.6 22.1 21.7 21.3 21.0 20.8 20.5 20.3 20.2 20.1 100.5 169.2 167.7 125.1 180.2 247.5 244.7 217.9 132.7 50.8 31.5 27.5 26.0 24.9 24.0 23.3 22.6 22.1 21.7 21.3 21.0 20.7 20.5 20.3 20.2 20.1 91.9 144.9 144.7 104.8 129.3 175.6 213.8 240.4 157.8 54.7 30.1 26.7 25.4 24.5 23.8 23.1 22.5 22.1 21.7 21.3 21.0 20.7 20.5 20.4 20.2 20.1 49.5 75.0 80.6 61.9 61.3 82.4 123.0 142.5 92.5 38.2 27.1 25.6 24.6 23.9 23.4 22.9 22.4 21.9 21.6 21.3 21.0 20.8 20.6 20.4 20.2 20.1 27.0 39.7 42.9 34.1 38.1 54.1 70.0 62.9 39.6 27.9 25.8 24.8 24.0 23.5 23.0 22.5 22.1 21.7 21.4 21.2 20.9 20.7 20.5 20.3 20.2 20.1 20.0 20.0 20.1 20.1 20.1 20.0 20.1 20.1 20.1 20.1 20.1 20.1 20.0 20.0 20.0 20.0 20.0 20.0 20.0 20.0 20.0 20.0 20.0 20.0 20.0 20.0 20.1 20.1 20.1 20.1 20.1 20.1 20.1 20.1 20.1 20.1 20.1 20.1 20.1 20.1 20.1 20.1 20.1 20.1 20.1 20.1 20.1 20.1 20.1 20.1 20.1 20.0 20.2 20.2 20.2 20.2 20.2 20.2 20.2 20.2 20.3 20.3 20.2 20.2 20.2 20.2 20.2 20.2 20.2 20.2 20.2 20.2 20.2 20.2 20.2 20.2 20.1 20.1 20.3 20.3 20.3 20.3 20.3 20.3 20.3 20.3 20.4 20.4 20.4 20.4 20.3 20.3 20.3 20.3 20.3 20.3 20.3 20.3 20.3 20.3 20.3 20.2 20.1 20.0 20.4 20.4 20.4 20.5 20.4 20.4 20.4 20.5 20.5 20.5 20.5 20.5 20.4 20.4 20.4 20.4 20.4 20.4 20.4 20.4 20.4 20.4 20.3 20.2 20.1 20.0 20.5 20.5 20.6 20.6 20.6 20.5 20.5 20.6 20.7 20.7 20.7 20.7 20.6 20.6 20.6 20.6 20.6 20.5 20.5 20.5 20.5 20.4 20.3 20.2 20.1 20.0 20.6 20.7 20.7 20.7 20.7 20.7 20.7 20.8 20.8 20.8 20.8 20.8 20.8 20.8 20.8 20.7 20.7 20.7 20.6 20.6 20.5 20.4 20.3 20.2 20.1 20.0 20.7 20.8 20.8 20.9 20.9 20.9 20.9 21.0 21.0 21.0 21.0 21.0 21.0 20.9 20.9 20.9 20.8 20.8 20.7 20.6 20.5 20.4 20.3 20.2 20.1 20.0 20.8 20.9 21.0 21.1 21.1 21.0 21.1 21.2 21.2 21.2 21.2 21.2 21.2 21.1 21.1 21.0 20.9 20.9 20.8 20.7 20.6 20.4 20.3 20.2 20.1 20.0 21.0 21.1 21.2 21.3 21.3 21.3 21.3 21.4 21.5 21.5 21.5 21.4 21.3 21.3 21.2 21.1 21.0 20.9 20.8 20.7 20.6 20.4 20.3 20.2 20.1 20.1 21.3 21.3 21.4 21.5 21.5 21.6 21.6 21.7 21.8 21.8 21.7 21.7 21.5 21.4 21.3 21.2 21.1 21.0 20.9 20.8 20.6 20.5 20.3 20.2 20.1 20.1 21.5 21.6 21.6 21.7 21.8 21.9 22.0 22.1 22.1 22.1 22.0 21.9 21.7 21.6 21.5 21.4 21.3 21.1 21.0 20.8 20.7 20.5 20.3 20.2 20.1 20.1 21.8 21.9 21.9 22.0 22.1 22.2 22.3 22.5 22.5 22.4 22.3 22.1 21.9 21.8 21.6 21.5 21.4 21.3 21.1 20.9 20.7 20.5 20.4 20.2 20.1 20.1 22.1 22.2 22.2 22.3 22.4 22.6 22.8 22.9 22.9 22.8 22.6 22.4 22.2 22.0 21.8 21.7 21.5 21.3 21.1 20.9 20.7 20.5 20.4 20.2 20.1 20.1 22.5 22.6 22.6 22.7 22.8 23.0 23.3 23.5 23.4 23.3 23.0 22.7 22.5 22.2 22.1 21.9 21.7 21.4 21.2 20.9 20.7 20.5 20.4 20.2 20.1 20.1 23.4 23.9 23.6 23.4 23.4 23.5 23.9 24.2 24.0 23.7 23.4 23.1 22.8 22.5 22.3 22.0 21.8 21.5 21.2 21.0 20.7 20.5 20.4 20.2 20.1 20.1 25.2 26.2 25.5 24.8 24.4 24.5 24.9 24.9 24.7 24.3 23.9 23.5 23.1 22.8 22.5 22.2 21.9 21.6 21.3 21.0 20.8 20.6 20.4 20.3 20.1 20.1 27.7 31.9 29.9 26.4 26.5 26.1 26.3 26.1 25.7 25.1 24.5 24.0 23.6 23.2 22.8 22.4 22.1 21.7 21.4 21.1 20.9 20.6 20.4 20.3 20.1 20.1 32.8 43.2 43.5 38.9 35.9 29.4 29.7 32.1 30.2 26.4 25.3 24.6 24.0 23.6 23.1 22.6 22.2 21.8 21.5 21.2 21.0 20.7 20.5 20.3 20.2 20.1 51.3 68.1 67.9 64.9 57.3 39.6 45.0 56.7 44.6 28.7 26.2 25.2 24.5 23.9 23.4 22.8 22.4 22.0 21.6 21.3 21.0 20.8 20.5 20.3 20.2 20.1 75.9 113.9 101.4 87.2 86.0 66.9 77.3 83.1 54.8 31.7 27.3 25.9 25.1 24.4 23.7 23.1 22.5 22.1 21.7 21.4 21.0 20.8 20.5 20.3 20.2 20.1 89.5 150.1 136.2 131.1 158.0 152.6 147.3 117.0 67.3 34.7 28.9 26.7 25.7 24.8 24.0 23.3 22.6 22.2 21.7 21.4 21.0 20.7 20.5 20.3 20.2 20.1 117.7 169.0 143.8 150.2 194.6 202.1 210.0 192.9 114.5 40.7 30.3 27.4 25.9 24.9 24.0 23.3 22.7 22.1 21.7 21.3 21.0 20.7 20.5 20.3 20.1 20.1 114.7 146.7 117.6 99.8 115.5 124.6 160.8 194.6 127.0 40.3 29.1 27.0 25.6 24.6 23.8 23.1 22.6 22.1 21.6 21.3 21.0 20.7 20.5 20.3 20.2 20.1 60.5 82.6 77.1 52.1 47.7 63.5 95.4 111.9 73.0 31.6 26.7 25.7 24.9 24.1 23.4 22.9 22.4 21.9 21.6 21.3 21.0 20.7 20.5 20.3 20.2 20.1 28.3 42.2 45.1 33.9 34.5 48.3 63.8 54.8 34.1 26.9 25.6 24.9 24.3 23.7 23.1 22.6 22.2 21.8 21.4 21.1 20.9 20.7 20.5 20.3 20.2 20.1 20.0 20.0 20.1 20.1 20.1 20.1 20.1 20.1 20.1 20.1 20.1 20.1 20.1 20.0 20.0 20.0 20.0 20.0 20.1 20.1 20.1 20.1 20.1 20.1 20.1 20.0 20.1 20.1 20.1 20.1 20.1 20.1 20.1 20.1 20.1 20.1 20.1 20.1 20.1 20.1 20.1 20.1 20.1 20.1 20.1 20.1 20.1 20.1 20.1 20.1 20.1 20.1 20.2 20.2 20.2 20.2 20.2 20.2 20.2 20.2 20.2 20.2 20.2 20.2 20.2 20.2 20.2 20.2 20.2 20.2 20.2 20.2 20.2 20.2 20.2 20.2 20.1 20.1 20.3 20.3 20.3 20.4 20.4 20.3 20.3 20.4 20.4 20.4 20.4 20.4 20.4 20.3 20.3 20.3 20.3 20.3 20.3 20.3 20.3 20.3 20.3 20.2 20.1 20.1 20.4 20.4 20.5 20.5 20.5 20.5 20.5 20.5 20.5 20.5 20.6 20.7 20.6 20.4 20.5 20.5 20.4 20.5 20.5 20.5 20.5 20.4 20.3 20.2 20.1 20.0 20.5 20.6 20.6 20.7 20.7 20.6 20.6 20.6 20.7 20.7 20.8 20.9 20.8 20.7 20.7 20.7 20.6 20.6 20.6 20.6 20.6 20.4 20.3 20.2 20.1 20.0 20.6 20.7 20.8 20.8 20.8 20.8 20.8 20.8 20.8 20.9 21.0 21.1 21.0 20.9 20.9 20.9 20.8 20.8 20.7 20.7 20.6 20.5 20.3 20.2 20.1 20.0 20.8 20.8 20.9 21.0 21.0 21.0 21.0 21.0 21.0 21.1 21.2 21.3 21.2 21.1 21.1 21.0 20.9 20.9 20.8 20.7 20.6 20.5 20.3 20.2 20.1 20.1 20.9 20.9 21.0 21.1 21.2 21.1 21.2 21.2 21.2 21.3 21.4 21.5 21.4 21.3 21.2 21.1 21.0 21.0 20.9 20.8 20.6 20.5 20.3 20.2 20.1 20.1 21.0 21.1 21.2 21.3 21.4 21.4 21.5 21.5 21.5 21.6 21.7 21.7 21.5 21.4 21.3 21.2 21.1 21.0 20.9 20.8 20.7 20.5 20.3 20.2 20.1 20.1 21.3 21.3 21.4 21.5 21.6 21.7 21.8 21.9 21.9 22.0 22.0 21.9 21.7 21.6 21.5 21.3 21.2 21.1 21.0 20.9 20.7 20.5 20.3 20.2 20.1 20.1 21.6 21.6 21.7 21.8 21.9 22.0 22.1 22.3 22.3 22.3 22.2 22.0 21.9 21.7 21.6 21.5 21.4 21.2 21.1 21.0 20.8 20.5 20.3 20.2 20.1 20.1 21.9 22.0 22.0 22.2 22.2 22.3 22.5 22.7 22.7 22.6 22.4 22.2 22.0 21.9 21.7 21.6 21.5 21.4 21.2 21.0 20.8 20.5 20.3 20.2 20.1 20.1 22.3 22.3 22.4 22.5 22.6 22.7 22.9 23.2 23.2 23.0 22.7 22.5 22.3 22.1 21.9 21.8 21.6 21.5 21.3 21.0 20.7 20.5 20.4 20.2 20.1 20.1 22.7 22.