<?xml version="1.0"?>
<VTKFile type="RectilinearGrid" version="1.0" byte_order="LittleEndian" header_type="UInt64">
<RectilinearGrid WholeExtent="0 25 0 25 0 15">
<Piece Extent="0 25 0 25 0 15">
<Coordinates>
<DataArray type="Float64" Name="Array X-Axis" format="ascii" RangeMin="0.0" RangeMax="15.0">
0.0 0.6 1.2 1.8 2.4 3.0 3.6 4.2 4.8 5.4 6.0 6.6 7.2 7.8 8.4 9.0 9.6 10.2 10.8 11.4 12.0 12.6 13.2 13.8 14.4 15.0 
</DataArray>
<DataArray type="Float64" Name="Array Y-Axis" format="ascii" RangeMin="0.0" RangeMax="15.0">
0.0 0.6 1.2 1.8 2.4 3.0 3.6 4.2 4.8 5.4 6.0 6.6 7.2 7.8 8.4 9.0 9.6 10.2 10.8 11.4 12.0 12.6 13.2 13.8 14.4 15.0 
</DataArray>
<DataArray type="Float64" Name="Array Z-Axis" format="ascii" RangeMin="0.0" RangeMax="9.0">
0.0 0.6 1.2 1.8 2.4 3.0 3.6 4.2 4.8 5.4 6.0 6.6 7.2 7.8 8.4 9.0 
</DataArray>
</Coordinates>
<PointData>
<DataArray Name="TEMPERATURE" NumberOfComponents="1" type="Float64" format="ascii">
20.0 20.0 20.0 20.0 20.0 20.0 20.0 20.0 20.0 20.0 20.0 20.0 20.0 20.0 20.0 20.0 20.0 20.0 20.0 20.0 20.0 20.0 20.0 20.0 20.0 20.0 20.0 20.0 20.0 20.0 20.0 20.0 20.0 20.0 20.0 20.0 20.0 20.0 20.0 20.0 20.0 20.0 20.0 20.0 20.0 20.0 20.0 20.1 20.1 20.1 20.1 20.1 20.0 20.0 20.1 20.1 20.1 20.1 20.1 20.1 20.1 20.1 20.1 20.1 20.1 20.1 20.1 20.1 20.1 20.1 20.1 20.1 20.1 20.1 20.1 20.1 20.1 20.1 20.0 20.0 20.1 20.1 20.1 20.1 20.1 20.1 20.1 20.1 20.1 20.1 20.1 20.1 20.1 20.1 20.1 20.1 20.1 20.1 20.2 20.2 20.2 20.2 20.2 20.2 20.0 20.0 20.1 20.1 20.1 20.1 20.1 20.1 20.1 20.1 20.1 20.1 20.1 20.1 20.2 20.2 20.2 20.2 20.2 20.2 20.2 20.2 20.2 20.3 20.3 20.3 20.0 20.0 20.1 20.1 20.1 20.2 20.2 20.2 20.2 20.2 20.2 20.2 20.2 20.2 20.2 20.2 20.2 20.2 20.3 20.3 20.3 20.3 20.3 20.3 20.4 20.4 20.0 20.0 20.1 20.1 20.1 20.2 20.2 20.2 20.2 20.2 20.2 20.3 20.3 20.3 20.3 20.3 20.3 20.3 20.3 20.3 20.4 20.4 20.4 20.4 20.4 20.5 20.0 20.0 20.1 20.1 20.1 20.2 20.2 20.2 20.3 20.3 20.3 20.3 20.3 20.3 20.3 20.3 20.4 20.4 20.4 20.4 20.4 20.5 20.5 20.5 20.5 20.6 20.0 20.0 20.1 20.1 20.1 20.2 20.2 20.3 20.3 20.3 20.3 20.4 20.4 20.4 20.4 20.4 20.4 20.5 20.5 20.5 20.5 20.5 20.6 20.6 20.6 20.7 20.0 20.0 20.1 20.1 20.1 20.2 20.2 20.3 20.3 20.3 20.4 20.4 20.4 20.5 20.5 20.5 20.5 20.6 20.6 20.6 20.6 20.6 20.7 20.7 20.8 20.8 20.0 20.0 20.0 20.1 20.1 20.2 20.2 20.3 20.3 20.3 20.4 20.4 20.5 20.5 20.6 20.6 20.6 20.7 20.7 20.7 20.7 20.7 20.8 20.8 20.9 21.0 20.0 20.0 20.0 20.1 20.1 20.2 20.2 20.3 20.3 20.4 20.4 20.5 20.5 20.5 20.6 20.7 20.7 20.8 20.8 20.8 20.9 20.9 20.9 21.0 21.0 21.1 20.0 20.0 20.0 20.1 20.1 20.1 20.2 20.2 20.3 20.4 20.4 20.5 20.5 20.6 20.6 20.7 20.8 20.9 20.9 21.0 21.0 21.1 21.1 21.2 21.2 21.3 20.0 20.0 20.0 20.1 20.1 20.1 20.2 20.2 20.3 20.4 20.4 20.5 20.5 20.6 20.7 20.8 20.8 20.9 21.0 21.1 21.2 21.3 21.3 21.4 21.4 21.5 20.0 20.0 20.0 20.1 20.1 20.1 20.2 20.2 20.3 20.3 20.4 20.5 20.5 20.6 20.7 20.8 20.9 21.0 21.1 21.2 21.3 21.4 21.5 21.6 21.7 21.8 20.0 20.0 20.0 20.1 20.1 20.1 20.2 20.2 20.3 20.3 20.4 20.5 20.5 20.6 20.7 20.8 20.9 21.1 21.2 21.3 21.5 21.6 21.8 21.9 22.0 22.2 20.0 20.0 20.1 20.1 20.1 20.2 20.2 20.3 20.3 20.4 20.4 20.5 20.6 20.6 20.7 20.8 21.0 21.1 21.3 21.4 21.6 21.8 22.0 22.2 22.4 22.6 20.0 20.0 20.1 20.1 20.1 20.2 20.2 20.3 20.3 20.4 20.5 20.5 20.6 20.7 20.8 20.9 21.0 21.1 21.3 21.5 21.7 21.9 22.2 22.4 22.7 23.0 20.0 20.0 20.1 20.1 20.1 20.2 20.2 20.3 20.4 20.4 20.5 20.6 20.7 20.8 20.8 20.9 21.1 21.2 21.4 21.6 21.8 22.1 22.4 22.7 23.1 23.5 20.0 20.0 20.1 20.1 20.1 20.2 20.2 20.3 20.4 20.4 20.5 20.6 20.7 20.8 20.9 21.0 21.2 21.4 21.5 21.8 22.0 22.3 22.7 23.1 23.5 24.1 20.0 20.0 20.0 20.1 20.1 20.1 20.2 20.2 20.3 20.4 20.4 20.5 20.6 20.7 20.8 21.0 21.2 21.4 21.6 21.9 22.3 22.6 23.0 23.5 24.1 25.1 20.0 20.0 20.0 20.1 20.1 20.1 20.2 20.2 20.3 20.3 20.4 20.4 20.5 20.6 20.7 20.9 21.1 21.3 21.5 21.9 22.3 22.7 23.1 23.8 24.4 25.7 20.0 20.0 20.0 20.1 20.1 20.1 20.2 20.2 20.2 20.3 20.4 20.4 20.5 20.6 20.7 20.9 21.0 21.2 21.5 21.8 22.2 22.5 23.1 23.7 24.5 25.7 20.0 20.0 20.0 20.1 20.1 20.1 20.2 20.2 20.3 20.3 20.4 20.5 20.6 20.6 20.8 20.9 21.1 21.3 21.6 21.8 22.1 22.5 23.0 23.6 24.4 25.4 20.0 20.0 20.1 20.1 20.1 20.2 20.2 20.3 20.3 20.4 20.5 20.6 20.7 20.8 20.9 21.0 21.2 21.4 21.6 21.8 22.0 22.4 22.9 23.3 23.9 24.5 20.0 20.0 20.1 20.1 20.2 20.2 20.3 20.3 20.4 20.5 20.6 20.6 20.7 20.8 20.9 21.1 21.2 21.3 21.5 21.7 21.9 22.2 22.5 22.9 23.2 22.8 20.0 20.0 20.0 20.0 20.0 20.0 20.0 20.0 20.0 20.0 20.0 20.0 20.0 20.0 20.0 20.0 20.0 20.0 20.0 20.0 20.0 20.0 20.0 20.0 20.0 20.0 20.0 20.0 20.0 20.0 20.0 20.0 20.0 20.0 20.0 20.0 20.0 20.0 20.0 20.0 20.0 20.0 20.0 20.0 20.0 20.0 20.0 20.0 20.1 20.1 20.1 20.1 20.0 20.0 20.1 20.1 20.1 20.1 20.1 20.1 20.1 20.1 20.1 20.1 20.1 20.1 20.1 20.1 20.1 20.1 20.1 20.1 20.1 20.1 20.1 20.1 20.1 20.1 20.0 20.0 20.1 20.1 20.1 20.1 20.1 20.1 20.1 20.1 20.1 20.1 20.1 20.1 20.1 20.1 20.1 20.1 20.1 20.1 20.1 20.1 20.2 20.2 20.2 20.2 20.0 20.0 20.1 20.1 20.1 20.1 20.1 20.1 20.1 20.1 20.1 20.1 20.1 20.1 20.1 20.1 20.2 20.2 20.2 20.2 20.2 20.2 20.2 20.2 20.3 20.3 20.0 20.0 20.1 20.1 20.1 20.2 20.2 20.2 20.2 20.2 20.2 20.2 20.2 20.2 20.2 20.2 20.2 20.2 20.2 20.2 20.3 20.3 20.3 20.3 20.3 20.4 20.0 20.0 20.1 20.1 20.1 20.2 20.2 20.2 20.2 20.2 20.2 20.2 20.2 20.2 20.2 20.2 20.3 20.3 20.3 20.3 20.3 20.3 20.4 20.4 20.4 20.4 20.0 20.0 20.1 20.1 20.1 20.2 20.2 20.2 20.2 20.3 20.3 20.3 20.3 20.3 20.3 20.3 20.3 20.3 20.4 20.4 20.4 20.4 20.5 20.5 20.5 20.5 20.0 20.0 20.0 20.1 20.1 20.2 20.2 20.2 20.3 20.3 20.3 20.3 20.4 20.4 20.4 20.4 20.4 20.4 20.4 20.5 20.5 20.5 20.5 20.6 20.6 20.7 20.0 20.0 20.0 20.1 20.1 20.2 20.2 20.2 20.3 20.3 20.3 20.4 20.4 20.4 20.5 20.5 20.5 20.5 20.5 20.6 20.6 20.6 20.6 20.7 20.7 20.8 20.0 20.0 20.0 20.1 20.1 20.2 20.2 20.2 20.3 20.3 20.4 20.4 20.4 20.5 20.5 20.6 20.6 20.6 20.7 20.7 20.7 20.7 20.8 20.8 20.9 20.9 20.0 20.0 20.0 20.1 20.1 20.1 20.2 20.2 20.3 20.3 20.4 20.4 20.5 20.5 20.6 20.6 20.7 20.7 20.8 20.8 20.8 20.9 20.9 21.0 21.0 21.1 20.0 20.0 20.0 20.1 20.1 20.1 20.2 20.2 20.3 20.3 20.4 20.4 20.5 20.5 20.6 20.7 20.7 20.8 20.9 21.0 21.0 21.1 21.1 21.1 21.2 21.3 20.0 20.0 20.0 20.1 20.1 20.1 20.2 20.2 20.3 20.3 20.4 20.4 20.5 20.6 20.6 20.7 20.8 20.9 21.0 21.1 21.2 21.2 21.3 21.4 21.5 21.5 20.0 20.0 20.0 20.1 20.1 20.1 20.2 20.2 20.3 20.3 20.4 20.4 20.5 20.6 20.7 20.8 20.9 21.0 21.1 21.2 21.3 21.4 21.5 21.6 21.7 21.8 20.0 20.0 20.0 20.1 20.1 20.1 20.2 20.2 20.3 20.3 20.4 20.4 20.5 20.6 20.7 20.8 20.9 21.0 21.2 21.3 21.5 21.6 21.8 21.9 22.1 22.2 20.0 20.0 20.0 20.1 20.1 20.1 20.2 20.2 20.3 20.3 20.4 20.4 20.5 20.6 20.7 20.8 20.9 21.1 21.2 21.4 21.6 21.8 22.0 22.2 22.4 22.6 20.0 20.0 20.0 20.1 20.1 20.1 20.2 20.2 20.3 20.3 20.4 20.5 20.5 20.6 20.7 20.8 20.9 21.1 21.3 21.5 21.7 21.9 22.2 22.5 22.8 23.1 20.0 20.0 20.0 20.1 20.1 20.1 20.2 20.2 20.3 20.4 20.4 20.5 20.6 20.6 20.8 20.9 21.0 21.2 21.4 21.6 21.8 22.1 22.4 22.8 23.2 23.6 20.0 20.0 20.0 20.1 20.1 20.1 20.2 20.2 20.3 20.4 20.4 20.5 20.6 20.7 20.8 20.9 21.1 21.3 21.5 21.8 22.0 22.4 22.7 23.1 23.6 24.3 20.0 20.0 20.0 20.1 20.1 20.1 20.2 20.2 20.3 20.3 20.4 20.5 20.5 20.6 20.8 20.9 21.1 21.3 21.6 21.9 22.3 22.7 23.1 23.6 24.2 25.1 20.0 20.0 20.0 20.1 20.1 20.1 20.1 20.2 20.2 20.3 20.3 20.4 20.5 20.6 20.7 20.9 21.1 21.3 21.5 21.9 22.4 22.8 23.3 24.0 24.7 25.8 20.0 20.0 20.0 20.1 20.1 20.1 20.1 20.2 20.2 20.3 20.3 20.4 20.5 20.5 20.7 20.8 21.0 21.3 21.5 21.9 22.2 22.6 23.2 24.0 24.8 26.3 20.0 20.0 20.0 20.1 20.1 20.1 20.2 20.2 20.2 20.3 20.4 20.4 20.5 20.6 20.7 20.9 21.1 21.3 21.6 21.9 22.1 22.5 23.1 23.7 24.6 26.0 20.0 20.0 20.1 20.1 20.1 20.2 20.2 20.2 20.3 20.4 20.5 20.5 20.6 20.7 20.9 21.0 21.2 21.4 21.6 21.8 22.0 22.4 22.9 23.4 23.9 24.8 20.0 20.0 20.1 20.1 20.1 20.2 20.2 20.3 20.4 20.4 20.5 20.6 20.7 20.8 20.9 21.0 21.2 21.3 21.5 21.7 21.9 22.2 22.5 22.9 23.3 22.9 20.0 20.0 20.0 20.0 20.0 20.0 20.0 20.0 20.0 20.0 20.0 20.0 20.0 20.0 20.0 20.0 20.0 20.0 20.0 20.0 20.0 20.0 20.0 20.0 20.0 20.0 20.0 20.0 20.0 20.0 20.0 20.0 20.0 20.0 20.0 20.0 20.0 20.0 20.0 20.0 20.0 20.0 20.0 20.0 20.0 20.0 20.0 20.0 20.0 20.0 20.0 20.1 20.0 20.0 20.1 20.1 20.1 20.1 20.0 20.0 20.0 20.0 20.0 20.0 20.0 20.1 20.1 20.1 20.1 20.1 20.1 20.1 20.1 20.1 20.1 20.1 20.1 20.1 20.0 20.0 20.1 20.1 20.1 20.1 20.1 20.1 20.1 20.1 20.1 20.1 20.1 20.1 20.1 20.1 20.1 20.1 20.1 20.1 20.1 20.1 20.1 20.1 20.2 20.2 20.0 20.0 20.1 20.1 20.1 20.1 20.1 20.1 20.1 20.1 20.1 20.1 20.1 20.1 20.1 20.1 20.1 20.1 20.2 20.2 20.2 20.2 20.2 20.2 20.2 20.2 20.0 20.0 20.1 20.1 20.1 20.1 20.1 20.1 20.1 20.2 20.2 20.2 20.2 20.2 20.2 20.2 20.2 20.2 20.2 20.2 20.2 20.2 20.3 20.3 20.3 20.3 20.0 20.0 20.0 20.1 20.1 20.1 20.2 20.2 20.2 20.2 20.2 20.2 20.2 20.2 20.2 20.2 20.2 20.2 20.3 20.3 20.3 20.3 20.3 20.4 20.4 20.4 20.0 20.0 20.0 20.1 20.1 20.1 20.2 20.2 20.2 20.2 20.2 20.2 20.3 20.3 20.3 20.3 20.3 20.3 20.3 20.3 20.4 20.4 20.4 20.4 20.5 20.5 20.0 20.0 20.0 20.1 20.1 20.1 20.2 20.2 20.2 20.2 20.3 20.3 20.3 20.3 20.3 20.4 20.4 20.4 20.4 20.4 20.4 20.5 20.5 20.5 20.6 20.6 20.0 20.0 20.0 20.1 20.1 20.1 20.2 20.2 20.2 20.3 20.3 20.3 20.3 20.4 20.4 20.4 20.5 20.5 20.5 20.5 20.5 20.6 20.6 20.6 20.7 20.8 20.0 20.0 20.0 20.1 20.1 20.1 20.2 20.2 20.2 20.3 20.3 20.3 20.4 20.4 20.5 20.5 20.5 20.6 20.6 20.6 20.7 20.7 20.7 20.8 20.8 20.9 20.0 20.0 20.0 20.1 20.1 20.1 20.2 20.2 20.2 20.3 20.3 20.4 20.4 20.4 20.5 20.5 20.6 20.7 20.7 20.8 20.8 20.8 20.9 20.9 21.0 21.1 20.0 20.0 20.0 20.1 20.1 20.1 20.2 20.2 20.2 20.3 20.3 20.4 20.4 20.5 20.5 20.6 20.7 20.7 20.8 20.9 21.0 21.0 21.1 21.1 21.2 21.3 20.0 20.0 20.0 20.1 20.1 20.1 20.1 20.2 20.2 20.3 20.3 20.4 20.4 20.5 20.6 20.6 20.7 20.8 20.9 21.0 21.1 21.2 21.3 21.4 21.5 21.6 20.0 20.0 20.0 20.1 20.1 20.1 20.1 20.2 20.2 20.3 20.3 20.4 20.4 20.5 20.6 20.7 20.8 20.9 21.0 21.1 21.3 21.4 21.5 21.7 21.8 21.9 20.0 20.0 20.0 20.1 20.1 20.1 20.1 20.2 20.2 20.3 20.3 20.4 20.4 20.5 20.6 20.7 20.8 21.0 21.1 21.3 21.4 21.6 21.7 21.9 22.1 22.3 20.0 20.0 20.0 20.1 20.1 20.1 20.1 20.2 20.2 20.2 20.3 20.3 20.4 20.5 20.6 20.7 20.9 21.0 21.2 21.4 21.5 21.8 22.0 22.2 22.5 22.8 20.0 20.0 20.0 20.1 20.1 20.1 20.1 20.2 20.2 20.2 20.3 20.3 20.4 20.5 20.7 20.8 20.9 21.1 21.3 21.5 21.7 21.9 22.2 22.5 22.9 23.3 20.0 20.0 20.0 20.1 20.1 20.1 20.1 20.2 20.2 20.2 20.3 20.3 20.4 20.5 20.8 21.0 21.1 21.2 21.4 21.6 21.9 22.2 22.5 22.9 23.4 23.9 20.0 20.0 20.0 20.0 20.1 20.1 20.1 20.2 20.2 20.2 20.3 20.4 20.4 20.6 20.9 21.1 21.2 21.3 21.5 21.8 22.1 22.4 22.8 23.3 23.9 24.7 20.0 20.0 20.0 20.0 20.1 20.1 20.1 20.1 20.2 20.2 20.3 20.3 20.4 20.6 20.9 21.2 21.3 21.4 21.6 21.9 22.3 22.7 23.3 23.8 24.5 25.5 20.0 20.0 20.0 20.0 20.1 20.1 20.1 20.1 20.2 20.2 20.3 20.3 20.4 20.5 20.9 21.2 21.3 21.4 21.6 22.0 22.4 22.9 23.5 24.3 25.1 26.2 20.0 20.0 20.0 20.0 20.1 20.1 20.1 20.1 20.2 20.2 20.3 20.3 20.4 20.5 20.9 21.2 21.3 21.4 21.6 22.0 22.4 22.8 23.5 24.4 25.4 26.9 20.0 20.0 20.0 20.0 20.1 20.1 20.1 20.1 20.2 20.2 20.3 20.4 20.4 20.6 20.8 21.1 21.2 21.4 21.6 21.9 22.2 22.7 23.3 24.1 25.0 26.5 20.0 20.0 20.0 20.1 20.1 20.1 20.2 20.2 20.2 20.3 20.4 20.5 20.5 20.7 20.8 21.0 21.1 21.3 21.6 21.8 22.1 22.5 22.9 23.5 24.1 25.1 20.0 20.0 20.0 20.1 20.1 20.1 20.2 20.2 20.3 20.4 20.4 20.5 20.6 20.7 20.8 20.9 21.1 21.2 21.4 21.6 21.9 22.2 22.6 23.0 23.5 23.1 20.0 20.0 20.0 20.0 20.0 20.0 20.0 20.0 20.0 20.0 20.0 20.0 20.0 20.0 20.0 20.0 20.0 20.0 20.0 20.0 20.0 20.0 20.0 20.0 20.0 20.0 20.0 20.0 20.0 20.0 20.0 20.0 20.0 20.0 20.0 20.0 20.0 20.0 20.0 20.0 20.0 20.0 20.0 20.0 20.0 20.0 20.0 20.0 20.0 20.0 20.0 20.1 20.0 20.0 20.1 20.1 20.0 20.0 20.0 20.0 20.0 20.0 20.0 20.0 20.0 20.0 20.1 20.1 20.1 20.1 20.1 20.1 20.1 20.1 20.1 20.1 20.1 20.1 20.0 20.0 20.1 20.1 20.1 20.1 20.1 20.1 20.1 20.1 20.1 20.1 20.1 20.1 20.1 20.1 20.1 20.1 20.1 20.1 20.1 20.1 20.1 20.1 20.2 20.2 20.0 20.0 20.1 20.1 20.1 20.1 20.1 20.1 20.1 20.2 20.1 20.1 20.1 20.1 20.1 20.1 20.1 20.1 20.2 20.2 20.2 20.2 20.2 20.2 20.2 20.2 20.0 20.0 20.0 20.1 20.1 20.1 20.1 20.1 20.2 20.2 20.2 20.2 20.2 20.2 20.2 20.2 20.2 20.2 20.2 20.2 20.2 20.2 20.3 20.3 20.3 20.3 20.0 20.0 20.0 20.1 20.1 20.1 20.1 20.2 20.2 20.2 20.2 20.2 20.2 20.2 20.2 20.2 20.2 20.3 20.3 20.3 20.3 20.3 20.3 20.4 20.4 20.4 20.0 20.0 20.0 20.1 20.1 20.1 20.2 20.2 20.2 20.2 20.2 20.2 20.3 20.3 20.3 20.3 20.3 20.3 20.4 20.4 20.4 20.4 20.4 20.5 20.5 20.5 20.0 20.0 20.0 20.1 20.1 20.1 20.2 20.2 20.2 20.2 20.2 20.3 20.3 20.3 20.3 20.4 20.4 20.4 20.4 20.4 20.5 20.5 20.5 20.6 20.6 20.7 20.0 20.0 20.0 20.1 20.1 20.1 20.2 20.2 20.2 20.2 20.3 20.3 20.3 20.4 20.4 20.4 20.5 20.5 20.5 20.5 20.6 20.6 20.7 20.7 20.7 20.8 20.0 20.0 20.0 20.1 20.1 20.1 20.2 20.2 20.2 20.3 20.3 20.3 20.4 20.4 20.4 20.5 20.5 20.6 20.6 20.7 20.7 20.7 20.8 20.8 20.9 20.9 20.0 20.0 20.0 20.1 20.1 20.1 20.2 20.2 20.2 20.3 20.3 20.3 20.4 20.4 20.5 20.5 20.6 20.6 20.7 20.8 20.8 20.9 20.9 21.0 21.1 21.1 20.0 20.0 20.0 20.1 20.1 20.1 20.2 20.2 20.2 20.3 20.3 20.4 20.4 20.5 20.5 20.6 20.7 20.8 20.8 20.9 21.0 21.0 21.1 21.2 21.3 21.4 20.0 20.0 20.0 20.1 20.1 20.1 20.1 20.2 20.2 20.3 20.3 20.4 20.4 20.5 20.5 20.6 20.9 21.1 21.1 21.1 21.1 21.2 21.3 21.4 21.5 21.7 20.0 20.0 20.0 20.1 20.1 20.1 20.1 20.2 20.2 20.3 20.3 20.4 20.4 20.5 20.6 20.7 21.0 21.3 21.2 21.2 21.3 21.4 21.5 21.7 21.8 22.0 20.0 20.0 20.0 20.1 20.1 20.1 20.1 20.2 20.2 20.2 20.3 20.3 20.4 20.5 20.6 20.7 20.9 21.1 21.2 21.3 21.4 21.6 21.8 22.0 22.2 22.4 20.0 20.0 20.0 20.0 20.1 20.1 20.1 20.1 20.2 20.2 20.3 20.3 20.4 20.5 20.7 20.8 20.9 21.1 21.2 21.4 21.6 21.8 22.0 22.3 22.6 22.9 20.0 20.0 20.0 20.0 20.1 20.1 20.1 20.1 20.2 20.2 20.3 20.3 20.4 20.5 20.9 21.2 21.1 21.2 21.3 21.5 21.7 22.0 22.3 22.6 23.0 23.5 20.0 20.0 20.0 20.0 20.1 20.1 20.1 20.1 20.2 20.2 20.3 20.3 20.4 20.4 21.2 21.8 21.4 21.4 21.5 21.7 21.9 22.2 22.6 23.1 24.0 25.1 20.0 20.0 20.0 20.0 20.1 20.1 20.1 20.1 20.2 20.2 20.3 20.3 20.4 20.4 21.5 22.2 21.7 21.6 21.6 21.9 22.2 22.5 23.0 23.7 25.3 28.2 20.0 20.0 20.0 20.0 20.1 20.1 20.1 20.1 20.2 20.3 20.3 20.3 20.4 20.4 21.7 22.6 21.9 21.7 21.8 22.0 22.4 22.8 23.4 24.1 25.7 29.1 20.0 20.0 20.0 20.0 20.1 20.1 20.1 20.1 20.2 20.3 20.3 20.3 20.4 20.4 21.9 22.8 22.1 21.8 21.8 22.1 22.5 23.0 23.7 24.6 25.7 28.1 20.0 20.0 20.0 20.0 20.1 20.1 20.1 20.1 20.2 20.3 20.3 20.3 20.4 20.4 21.8 22.9 22.2 21.9 21.9 22.1 22.5 23.0 24.1 25.1 26.1 28.7 20.0 20.0 20.0 20.0 20.1 20.1 20.1 20.1 20.2 20.3 20.3 20.4 20.5 20.6 21.4 22.0 21.7 21.6 21.8 22.0 22.4 22.9 23.9 25.0 26.1 28.0 20.0 20.0 20.0 20.1 20.1 20.1 20.1 20.2 20.2 20.3 20.4 20.5 20.6 20.7 20.9 21.1 21.2 21.4 21.6 21.8 22.1 22.6 23.1 23.9 24.9 25.7 20.0 20.0 20.0 20.1 20.1 20.1 20.2 20.2 20.3 20.3 20.4 20.5 20.6 20.7 20.8 20.9 21.0 21.2 21.4 21.6 21.9 22.3 22.6 23.1 23.7 23.3 20.0 20.0 20.0 20.0 20.0 20.0 20.0 20.0 20.0 20.0 20.0 20.0 20.0 20.0 20.0 20.0 20.0 20.0 20.0 20.0 20.0 20.0 20.0 20.0 20.0 20.0 20.0 20.0 20.0 20.0 20.0 20.0 20.0 20.0 20.0 20.0 20.0 20.0 20.0 20.0 20.0 20.0 20.0 20.0 20.0 20.0 20.0 20.0 20.0 20.1 20.1 20.1 20.0 20.0 20.1 20.1 20.1 20.1 20.0 20.0 20.0 20.0 20.1 20.1 20.1 20.1 20.1 20.1 20.1 20.1 20.1 20.1 20.1 20.1 20.1 20.1 20.1 20.1 20.0 20.0 20.1 20.1 20.1 20.1 20.1 20.1 20.1 20.1 20.1 20.1 20.1 20.1 20.1 20.1 20.1 20.1 20.1 20.1 20.1 20.2 20.2 20.2 20.2 20.2 20.0 20.0 20.1 20.1 20.1 20.1 20.1 20.1 20.2 20.2 20.2 20.1 20.1 20.1 20.1 20.2 20.2 20.2 20.2 20.2 20.2 20.2 20.2 20.2 20.3 20.3 20.0 20.0 20.1 20.1 20.1 20.1 20.2 20.2 20.2 20.2 20.2 20.2 20.2 20.2 20.2 20.2 20.2 20.2 20.3 20.3 20.3 20.3 20.3 20.3 20.3 20.4 20.0 20.0 20.1 20.1 20.1 20.1 20.2 20.2 20.2 20.2 20.3 20.3 20.2 20.2 20.3 20.3 20.3 20.3 20.3 20.3 20.3 20.4 20.4 20.4 20.4 20.5 20.0 20.0 20.0 20.1 20.1 20.1 20.2 20.2 20.2 20.2 20.3 20.3 20.3 20.3 20.3 20.3 20.4 20.4 20.4 20.4 20.4 20.5 20.5 20.5 20.5 20.6 20.0 20.0 20.0 20.1 20.1 20.1 20.2 20.2 20.2 20.2 20.3 20.3 20.3 20.4 20.4 20.4 20.4 20.5 20.5 20.5 20.5 20.6 20.6 20.6 20.7 20.7 20.0 20.0 20.0 20.1 20.1 20.1 20.2 20.2 20.2 20.3 20.3 20.3 20.4 20.4 20.4 20.5 20.5 20.6 20.6 20.6 20.7 20.7 20.8 20.8 20.8 20.9 20.0 20.0 20.0 20.1 20.1 20.1 20.2 20.2 20.2 20.3 20.3 20.3 20.4 20.4 20.5 20.5 20.6 20.6 20.7 20.7 20.8 20.8 20.9 21.0 21.0 21.0 20.0 20.0 20.0 20.1 20.1 20.1 20.2 20.2 20.3 20.3 20.3 20.4 20.4 20.5 20.5 20.6 20.6 20.7 20.8 20.8 20.9 21.0 21.0 21.1 21.2 21.2 20.0 20.0 20.0 20.1 20.1 20.1 20.2 20.2 20.3 20.3 20.4 20.4 20.5 20.5 20.6 20.6 20.8 20.9 21.0 21.0 21.1 21.1 21.2 21.3 21.4 21.5 20.0 20.0 20.0 20.1 20.1 20.1 20.2 20.2 20.3 20.3 20.4 20.4 20.5 20.5 20.6 20.7 21.1 21.4 21.3 21.2 21.2 21.3 21.4 21.5 21.6 21.8 20.0 20.0 20.0 20.1 20.1 20.1 20.2 20.2 20.2 20.3 20.3 20.4 20.5 20.6 20.7 20.8 21.2 21.6 21.5 21.4 21.4 21.5 21.6 21.8 21.9 22.1 20.0 20.0 20.0 20.1 20.1 20.1 20.1 20.2 20.2 20.3 20.3 20.4 20.5 20.6 20.7 20.8 21.1 21.3 21.4 21.5 21.5 21.7 21.8 22.0 22.2 22.6 20.0 20.0 20.0 20.1 20.1 20.1 20.1 20.2 20.2 20.3 20.3 20.4 20.5 20.6 20.8 20.9 21.1 21.2 21.4 21.5 21.7 21.9 22.1 22.4 22.7 23.2 20.0 20.0 20.0 20.0 20.1 20.1 20.1 20.2 20.2 20.2 20.3 20.4 20.6 20.6 21.0 21.4 21.3 21.3 21.5 21.6 21.8 22.1 22.3 22.7 23.1 24.0 20.0 20.0 20.0 20.0 20.1 20.1 20.1 20.2 20.3 20.2 20.1 20.4 20.7 20.7 21.5 22.1 21.7 21.6 21.7 21.9 22.1 22.4 22.7 23.3 24.4 26.5 20.0 20.0 20.0 20.0 20.1 20.1 20.1 20.2 20.3 20.2 20.2 20.4 20.8 20.8 21.9 22.8 22.3 22.0 22.0 22.1 22.3 22.7 23.1 23.9 26.5 35.9 20.0 20.0 20.0 20.0 20.1 20.1 20.1 20.2 20.3 20.2 20.2 20.4 20.8 20.8 22.3 23.5 22.8 22.3 22.2 22.3 22.6 23.0 23.5 24.4 27.1 40.3 20.0 20.0 20.0 20.0 20.1 20.1 20.1 20.3 20.4 20.3 20.2 20.4 20.8 20.8 22.6 23.9 23.2 22.6 22.3 22.4 22.7 23.1 23.8 24.9 26.8 34.5 20.0 20.0 20.0 20.0 20.1 20.1 20.1 20.3 20.4 20.3 20.2 20.4 20.8 20.8 22.5 23.9 23.2 22.6 22.4 22.4 22.7 23.2 24.6 26.3 27.6 32.0 20.0 20.0 20.0 20.0 20.1 20.1 20.1 20.2 20.3 20.3 20.4 20.6 20.8 20.9 21.9 22.7 22.3 22.2 22.1 22.2 22.6 23.1 24.4 26.5 27.8 30.3 20.0 20.0 20.0 20.1 20.1 20.1 20.2 20.2 20.3 20.4 20.5 20.6 20.8 20.9 21.1 21.3 21.4 21.6 21.7 22.0 22.3 22.7 23.2 24.6 25.9 26.5 20.0 20.0 20.1 20.1 20.1 20.2 20.2 20.3 20.3 20.4 20.5 20.6 20.6 20.7 20.9 21.0 21.2 21.3 21.6 21.8 22.1 22.4 22.8 23.3 23.9 23.4 20.0 20.0 20.0 20.0 20.0 20.0 20.0 20.0 20.0 20.0 20.0 20.0 20.0 20.0 20.0 20.0 20.0 20.0 20.0 20.0 20.0 20.0 20.0 20.0 20.0 20.0 20.0 20.0 20.0 20.0 20.0 20.0 20.0 20.0 20.0 20.0 20.0 20.0 20.0 20.0 20.0 20.0 20.0 20.0 20.0 20.0 20.0 20.1 20.1 20.1 20.1 20.1 20.0 20.0 20.1 20.1 20.1 20.1 20.1 20.1 20.1 20.1 20.1 20.1 20.1 20.1 20.1 20.1 20.1 20.1 20.1 20.1 20.1 20.1 20.1 20.1 20.1 20.1 20.0 20.0 20.1 20.1 20.1 20.1 20.1 20.1 20.1 20.1 20.1 20.1 20.1 20.1 20.1 20.1 20.1 20.1 20.2 20.2 20.2 20.2 20.2 20.2 20.2 20.2 20.0 20.0 20.1 20.1 20.1 20.1 20.1 20.1 20.2 20.2 20.2 20.2 20.2 20.2 20.2 20.2 20.2 20.2 20.2 20.2 20.2 20.2 20.3 20.3 20.3 20.3 20.0 20.0 20.1 20.1 20.1 20.2 20.2 20.2 20.2 20.2 20.2 20.2 20.2 20.2 20.2 20.3 20.3 20.3 20.3 20.3 20.3 20.3 20.3 20.4 20.4 20.4 20.0 20.0 20.1 20.1 20.1 20.2 20.2 20.2 20.2 20.3 20.3 20.3 20.3 20.3 20.3 20.3 20.4 20.4 20.4 20.4 20.4 20.4 20.4 20.5 20.5 20.5 20.0 20.0 20.1 20.1 20.1 20.2 20.2 20.2 20.2 20.3 20.3 20.3 20.4 20.4 20.4 20.4 20.4 20.5 20.5 20.5 20.5 20.5 20.6 20.6 20.6 20.6 20.0 20.0 20.1 20.1 20.1 20.2 20.2 20.2 20.3 20.3 20.3 20.4 20.4 20.4 20.5 20.5 20.5 20.6 20.6 20.6 20.6 20.6 20.7 20.7 20.7 20.8 20.0 20.0 20.1 20.1 20.1 20.2 20.2 20.2 20.3 20.3 20.4 20.4 20.4 20.5 20.5 20.6 20.6 20.7 20.7 20.7 20.8 20.8 20.8 20.9 20.9 20.9 20.0 20.0 20.1 20.1 20.1 20.2 20.2 20.3 20.3 20.3 20.4 20.4 20.5 20.5 20.6 20.6 20.7 20.7 20.8 20.8 20.9 20.9 21.0 21.1 21.1 21.1 20.0 20.0 20.1 20.1 20.1 20.2 20.2 20.3 20.3 20.4 20.4 20.5 20.5 20.6 20.6 20.7 20.8 20.8 20.9 21.0 21.0 21.1 21.2 21.2 21.3 21.3 20.0 20.0 20.0 20.1 20.1 20.2 20.2 20.3 20.3 20.4 20.4 20.5 20.5 20.6 20.7 20.8 20.9 21.1 21.1 21.1 21.2 21.3 21.4 21.4 21.5 21.6 20.0 20.0 20.0 20.1 20.1 20.2 20.2 20.3 20.3 20.4 20.4 20.5 20.6 20.7 20.7 20.9 21.1 21.3 21.3 21.3 21.3 21.4 21.5 21.7 21.8 21.9 20.0 20.0 20.0 20.1 20.1 20.2 20.2 20.2 20.3 20.4 20.4 20.5 20.6 20.7 20.8 20.9 21.2 21.4 21.4 21.5 21.5 21.6 21.7 21.9 22.0 22.2 20.0 20.0 20.0 20.1 20.1 20.1 20.2 20.2 20.3 20.3 20.4 20.5 20.6 20.7 20.8 21.0 21.1 21.3 21.4 21.5 21.7 21.8 22.0 22.2 22.4 22.7 20.0 20.0 20.0 20.1 20.1 20.1 20.2 20.2 20.3 20.4 20.5 20.5 20.6 20.7 20.9 21.0 21.2 21.3 21.5 21.7 21.8 22.0 22.2 22.5 23.3 25.9 20.0 20.0 20.0 20.1 20.1 20.1 20.1 20.3 20.4 20.4 20.4 20.6 20.8 20.9 21.0 21.2 21.3 21.4 21.6 21.8 22.0 22.2 22.5 22.8 24.2 29.9 20.0 20.0 20.0 20.1 20.1 20.1 20.1 20.3 20.4 20.4 20.4 20.7 21.0 21.1 21.4 21.6 21.6 21.7 21.8 22.0 22.2 22.5 22.8 23.8 27.6 34.8 20.0 20.0 20.0 20.1 20.1 20.1 20.1 20.3 20.5 20.4 20.4 20.7 21.1 21.3 21.7 22.1 22.2 22.2 22.2 22.3 22.5 22.8 23.2 25.8 34.6 54.3 20.0 20.0 20.0 20.1 20.1 20.1 20.1 20.4 20.5 20.4 20.4 20.8 21.2 21.4 22.0 22.7 23.0 22.8 22.7 22.7 22.8 23.1 23.7 26.3 39.1 73.7 20.0 20.0 20.0 20.1 20.1 20.1 20.1 20.4 20.6 20.4 20.4 20.8 21.2 21.4 22.1 22.9 23.3 23.2 22.9 22.9 23.0 23.4 24.0 25.9 36.2 65.4 20.0 20.0 20.0 20.1 20.1 20.1 20.1 20.4 20.6 20.4 20.4 20.8 21.2 21.4 22.1 22.8 23.1 23.1 22.9 22.8 23.1 23.5 24.6 27.1 32.7 52.1 20.0 20.0 20.0 20.1 20.1 20.1 20.1 20.3 20.5 20.5 20.6 20.8 21.1 21.3 21.8 22.2 22.3 22.4 22.5 22.6 22.9 23.4 24.3 26.8 30.6 40.9 20.0 20.0 20.0 20.1 20.1 20.2 20.2 20.3 20.4 20.5 20.6 20.8 20.9 21.1 21.2 21.4 21.6 21.8 22.0 22.2 22.5 22.9 23.3 24.7 26.3 28.3 20.0 20.0 20.1 20.1 20.2 20.2 20.3 20.3 20.4 20.5 20.6 20.7 20.8 20.9 21.0 21.2 21.3 21.5 21.8 22.0 22.3 22.6 22.9 23.4 24.0 23.8 20.0 20.0 20.0 20.0 20.0 20.0 20.0 20.0 20.0 20.0 20.0 20.0 20.0 20.0 20.0 20.0 20.0 20.0 20.0 20.0 20.0 20.0 20.0 20.0 20.0 20.0 20.0 20.0 20.1 20.0 20.0 20.0 20.0 20.0 20.0 20.0 20.0 20.0 20.0 20.0 20.0 20.0 20.0 20.0 20.0 20.1 20.1 20.1 20.1 20.1 20.1 20.1 20.0 20.1 20.1 20.1 20.1 20.1 20.1 20.1 20.1 20.1 20.1 20.1 20.1 20.1 20.1 20.1 20.1 20.1 20.1 20.1 20.1 20.1 20.1 20.1 20.1 20.2 20.0 20.0 20.1 20.1 20.1 20.1 20.1 20.1 20.1 20.1 20.1 20.1 20.1 20.1 20.1 20.1 20.2 20.2 20.2 20.2 20.2 20.2 20.2 20.2 20.2 20.2 20.0 20.0 20.1 20.1 20.1 20.2 20.2 20.2 20.2 20.2 20.2 20.2 20.2 20.2 20.2 20.2 20.2 20.2 20.2 20.2 20.3 20.3 20.3 20.3 20.3 20.3 20.0 20.0 20.1 20.1 20.2 20.2 20.2 20.2 20.2 20.2 20.3 20.3 20.3 20.3 20.3 20.3 20.3 20.3 20.3 20.3 20.3 20.3 20.4 20.4 20.4 20.4 20.0 20.0 20.1 20.1 20.2 20.2 20.2 20.2 20.3 20.3 20.3 20.3 20.3 20.4 20.4 20.4 20.4 20.4 20.4 20.4 20.4 20.4 20.5 20.5 20.5 20.5 20.0 20.0 20.1 20.1 20.2 20.2 20.2 20.3 20.3 20.3 20.4 20.4 20.4 20.4 20.5 20.5 20.5 20.5 20.5 20.6 20.6 20.6 20.6 20.6 20.6 20.7 20.0 20.0 20.1 20.1 20.2 20.2 20.3 20.3 20.3 20.4 20.4 20.4 20.5 20.5 20.5 20.6 20.6 20.6 20.7 20.7 20.7 20.7 20.7 20.8 20.8 20.8 20.0 20.0 20.1 20.1 20.2 20.2 20.3 20.3 20.3 20.4 20.4 20.5 20.5 20.6 20.6 20.7 20.7 20.7 20.8 20.8 20.8 20.9 20.9 20.9 21.0 21.0 20.0 20.0 20.1 20.1 20.2 20.2 20.3 20.3 20.4 20.4 20.5 20.5 20.6 20.6 20.7 20.7 20.8 20.8 20.9 20.9 21.0 21.0 21.1 21.1 21.2 21.2 20.0 20.0 20.1 20.1 20.2 20.2 20.3 20.3 20.4 20.4 20.5 20.5 20.6 20.7 20.7 20.8 20.9 20.9 21.0 21.1 21.1 21.2 21.3 21.3 21.4 21.4 20.0 20.0 20.1 20.1 20.2 20.2 20.3 20.3 20.4 20.4 20.5 20.6 20.6 20.7 20.8 20.9 21.0 21.1 21.1 21.2 21.3 21.4 21.5 21.5 21.6 21.7 20.0 20.0 20.1 20.1 20.1 20.2 20.3 20.3 20.4 20.4 20.5 20.6 20.7 20.8 20.8 21.0 21.1 21.2 21.3 21.3 21.4 21.5 21.6 21.7 21.8 21.9 20.0 20.0 20.1 20.1 20.1 20.2 20.3 20.3 20.4 20.4 20.5 20.6 20.7 20.8 20.9 21.0 21.1 21.3 21.4 21.5 21.6 21.7 21.8 22.0 22.1 22.3 20.0 20.0 20.1 20.1 20.1 20.2 20.2 20.3 20.4 20.4 20.5 20.6 20.7 20.8 20.9 21.0 21.2 21.3 21.4 21.6 21.7 21.9 22.0 22.2 22.4 22.7 20.0 20.0 20.1 20.1 20.1 20.2 20.2 20.3 20.4 20.5 20.6 20.6 20.7 20.8 21.0 21.1 21.2 21.4 21.5 21.7 21.9 22.1 22.3 22.5 23.6 27.7 20.0 20.0 20.1 20.1 20.1 20.2 20.2 20.3 20.5 20.6 20.7 20.7 20.8 20.9 21.0 21.1 21.3 21.5 21.6 21.8 22.1 22.3 22.6 23.1 26.1 38.2 20.0 20.0 20.1 20.1 20.1 20.2 20.2 20.4 20.5 20.6 20.7 20.8 21.0 21.1 21.2 21.3 21.5 21.6 21.8 22.0 22.3 22.6 23.0 24.5 34.9 51.7 20.0 20.0 20.0 20.1 20.1 20.2 20.2 20.4 20.5 20.6 20.8 20.9 21.1 21.2 21.4 21.6 21.9 22.1 22.2 22.4 22.6 22.8 23.4 27.6 52.8 89.5 20.0 20.0 20.0 20.1 20.1 20.2 20.2 20.4 20.6 20.6 20.8 20.9 21.1 21.3 21.5 21.9 22.5 22.8 22.8 22.9 23.0 23.3 24.1 29.4 65.1 130.3 20.0 20.0 20.0 20.1 20.1 20.1 20.2 20.4 20.6 20.7 20.8 20.9 21.1 21.2 21.5 22.0 22.7 23.1 23.2 23.3 23.4 23.6 24.9 30.2 56.1 115.0 20.0 20.0 20.0 20.1 20.1 20.1 20.2 20.4 20.6 20.7 20.8 20.9 21.1 21.2 21.5 21.8 22.4 23.0 23.3 23.3 23.4 23.8 25.7 32.8 48.7 90.2 20.0 20.0 20.0 20.1 20.1 20.2 20.2 20.4 20.5 20.6 20.8 20.9 21.0 21.2 21.4 21.7 22.0 22.5 22.8 22.9 23.1 23.5 25.0 31.0 43.4 68.1 20.0 20.0 20.1 20.1 20.2 20.2 20.3 20.4 20.5 20.6 20.7 20.8 21.0 21.1 21.3 21.5 21.6 21.9 22.2 22.4 22.7 23.0 23.6 26.0 31.3 38.8 20.0 20.0 20.1 20.1 20.2 20.3 20.3 20.4 20.5 20.6 20.7 20.8 20.9 21.0 21.1 21.3 21.5 21.7 21.9 22.1 22.4 22.7 23.1 23.9 25.8 27.5 20.0 20.0 20.0 20.0 20.0 20.0 20.0 20.0 20.0 20.0 20.0 20.0 20.0 20.0 20.0 20.0 20.0 20.0 20.0 20.0 20.0 20.0 20.0 20.0 20.0 20.0 20.0 20.1 20.1 20.1 20.0 20.0 20.0 20.0 20.0 20.0 20.0 20.0 20.0 20.0 20.0 20.0 20.0 20.0 20.1 20.1 20.1 20.1 20.1 20.1 20.1 20.1 20.0 20.1 20.1 20.1 20.1 20.1 20.1 20.1 20.1 20.1 20.1 20.1 20.1 20.1 20.1 20.1 20.1 20.1 20.1 20.1 20.1 20.1 20.1 20.1 20.1 20.2 20.0 20.1 20.1 20.1 20.2 20.2 20.2 20.2 20.2 20.2 20.2 20.2 20.2 20.2 20.2 20.2 20.2 20.2 20.2 20.2 20.2 20.2 20.2 20.2 20.2 20.2 20.0 20.0 20.1 20.2 20.2 20.2 20.2 20.2 20.2 20.2 20.2 20.2 20.2 20.2 20.2 20.2 20.2 20.2 20.2 20.3 20.3 20.3 20.3 20.3 20.3 20.3 20.0 20.0 20.1 20.1 20.2 20.2 20.2 20.3 20.3 20.3 20.3 20.3 20.3 20.3 20.3 20.3 20.3 20.3 20.3 20.3 20.3 20.4 20.4 20.4 20.4 20.4 20.0 20.0 20.1 20.2 20.2 20.2 20.3 20.3 20.3 20.3 20.4 20.4 20.4 20.4 20.4 20.4 20.4 20.5 20.5 20.5 20.5 20.5 20.5 20.5 20.5 20.5 20.0 20.0 20.1 20.2 20.2 20.3 20.3 20.3 20.3 20.4 20.4 20.4 20.5 20.5 20.5 20.5 20.6 20.6 20.6 20.6 20.6 20.6 20.6 20.6 20.6 20.7 20.0 20.0 20.1 20.1 20.2 20.3 20.3 20.3 20.4 20.4 20.4 20.5 20.5 20.6 20.6 20.6 20.7 20.7 20.7 20.7 20.8 20.8 20.8 20.8 20.8 20.8 20.0 20.0 20.1 20.1 20.2 20.3 20.3 20.4 20.4 20.4 20.5 20.5 20.6 20.6 20.7 20.7 20.8 20.8 20.8 20.9 20.9 20.9 21.0 21.0 21.0 21.1 20.0 20.0 20.1 20.1 20.2 20.3 20.3 20.4 20.4 20.5 20.5 20.6 20.6 20.7 20.7 20.8 20.8 20.9 21.0 21.0 21.1 21.1 21.2 21.2 21.2 21.3 20.0 20.0 20.1 20.1 20.2 20.3 20.3 20.4 20.4 20.5 20.5 20.6 20.7 20.7 20.8 20.8 20.9 21.0 21.1 21.1 21.2 21.3 21.3 21.4 21.5 21.6 20.0 20.0 20.1 20.1 20.2 20.2 20.3 20.4 20.4 20.5 20.6 20.6 20.7 20.8 20.8 20.9 21.0 21.1 21.1 21.2 21.3 21.4 21.5 21.6 21.7 21.8 20.0 20.0 20.1 20.1 20.2 20.2 20.3 20.4 20.4 20.5 20.6 20.7 20.7 20.8 20.9 21.0 21.1 21.1 21.2 21.3 21.4 21.6 21.7 21.8 22.0 22.1 20.0 20.0 20.1 20.1 20.2 20.2 20.3 20.4 20.4 20.5 20.6 20.7 20.7 20.8 20.9 21.0 21.1 21.2 21.3 21.4 21.6 21.7 21.9 22.0 22.2 22.4 20.0 20.0 20.1 20.1 20.2 20.2 20.3 20.4 20.5 20.5 20.6 20.7 20.8 20.9 21.0 21.1 21.2 21.3 21.4 21.6 21.7 21.9 22.1 22.3 22.5 22.9 20.0 20.0 20.1 20.1 20.2 20.3 20.3 20.4 20.5 20.5 20.6 20.7 20.8 20.9 21.0 21.1 21.2 21.4 21.5 21.7 21.9 22.1 22.3 22.6 23.4 26.6 20.0 20.0 20.1 20.1 20.2 20.3 20.3 20.4 20.5 20.6 20.7 20.8 20.9 20.9 21.0 21.2 21.3 21.5 21.6 21.8 22.1 22.3 22.9 24.8 30.2 41.8 20.0 20.0 20.1 20.1 20.2 20.3 20.3 20.4 20.5 20.6 20.7 20.8 20.9 21.0 21.2 21.3 21.4 21.6 21.8 22.0 22.2 22.6 23.6 26.6 41.3 64.0 20.0 20.0 20.1 20.1 20.2 20.2 20.3 20.4 20.5 20.6 20.7 20.8 21.0 21.2 21.3 21.5 21.8 22.0 22.2 22.3 22.5 22.9 23.9 27.5 56.6 106.2 20.0 20.0 20.1 20.1 20.2 20.2 20.3 20.4 20.5 20.6 20.7 20.8 21.0 21.2 21.4 21.7 22.2 22.6 22.8 22.9 23.0 23.3 24.4 31.5 75.6 153.4 20.0 20.0 20.1 20.1 20.1 20.2 20.3 20.4 20.5 20.6 20.7 20.8 20.9 21.1 21.4 21.6 22.2 22.9 23.4 23.5 23.6 23.8 25.4 34.5 70.0 137.5 20.0 20.0 20.1 20.1 20.1 20.2 20.3 20.4 20.5 20.6 20.7 20.8 20.9 21.1 21.3 21.6 22.1 22.9 23.5 23.6 23.7 24.0 26.3 37.7 64.7 112.2 20.0 20.0 20.1 20.1 20.2 20.2 20.3 20.4 20.5 20.6 20.7 20.8 21.0 21.1 21.3 21.6 21.9 22.5 23.0 23.2 23.3 23.7 25.4 34.7 57.7 87.6 20.0 20.0 20.1 20.1 20.2 20.3 20.4 20.4 20.5 20.7 20.8 20.9 21.0 21.2 21.3 21.5 21.7 22.1 22.4 22.5 22.8 23.1 23.7 26.8 36.0 48.0 20.0 20.0 20.1 20.2 20.2 20.3 20.4 20.5 20.6 20.7 20.8 20.9 21.0 21.1 21.2 21.4 21.5 21.7 22.0 22.2 22.5 22.8 23.2 24.2 27.5 30.7 20.0 20.0 20.0 20.0 20.0 20.0 20.0 20.0 20.0 20.0 20.0 20.0 20.0 20.0 20.0 20.0 20.0 20.0 20.0 20.0 20.0 20.0 20.0 20.0 20.0 20.0 20.0 20.1 20.1 20.1 20.1 20.0 20.0 20.0 20.0 20.0 20.0 20.0 20.0 20.0 20.0 20.0 20.0 20.0 20.1 20.1 20.1 20.1 20.1 20.1 20.1 20.1 20.0 20.1 20.1 20.1 20.1 20.1 20.1 20.1 20.1 20.1 20.1 20.1 20.1 20.1 20.1 20.1 20.1 20.1 20.1 20.1 20.1 20.1 20.1 20.1 20.1 20.2 20.0 20.1 20.1 20.2 20.2 20.2 20.2 20.2 20.2 20.2 20.2 20.2 20.2 20.2 20.2 20.2 20.2 20.2 20.2 20.2 20.2 20.2 20.2 20.2 20.2 20.2 20.0 20.1 20.1 20.2 20.2 20.2 20.2 20.2 20.2 20.3 20.3 20.3 20.3 20.3 20.3 20.3 20.3 20.3 20.3 20.3 20.3 20.3 20.3 20.3 20.3 20.4 20.0 20.0 20.1 20.2 20.2 20.3 20.3 20.3 20.3 20.3 20.3 20.4 20.4 20.4 20.4 20.4 20.4 20.4 20.4 20.4 20.4 20.4 20.4 20.4 20.4 20.5 20.0 20.0 20.1 20.2 20.2 20.3 20.3 20.3 20.4 20.4 20.4 20.4 20.4 20.5 20.5 20.5 20.5 20.5 20.5 20.5 20.5 20.5 20.5 20.5 20.5 20.6 20.0 20.0 20.1 20.2 20.2 20.3 20.3 20.4 20.4 20.4 20.4 20.5 20.5 20.5 20.6 20.6 20.6 20.6 20.6 20.6 20.7 20.7 20.7 20.6 20.7 20.7 20.0 20.0 20.1 20.2 20.2 20.3 20.3 20.4 20.4 20.4 20.5 20.5 20.6 20.6 20.6 20.7 20.7 20.7 20.8 20.8 20.8 20.8 20.8 20.8 20.8 20.9 20.0 20.0 20.1 20.2 20.2 20.3 20.4 20.4 20.4 20.5 20.5 20.6 20.6 20.7 20.7 20.7 20.8 20.8 20.9 20.9 21.0 21.0 21.0 21.0 21.1 21.1 20.0 20.0 20.1 20.2 20.2 20.3 20.4 20.4 20.5 20.5 20.6 20.6 20.6 20.7 20.7 20.8 20.9 20.9 21.0 21.0 21.1 21.2 21.2 21.2 21.3 21.3 20.0 20.0 20.1 20.1 20.2 20.3 20.4 20.4 20.5 20.5 20.6 20.6 20.7 20.7 20.8 20.8 20.9 21.0 21.1 21.1 21.2 21.3 21.4 21.4 21.5 21.6 20.0 20.0 20.1 20.1 20.2 20.3 20.3 20.4 20.5 20.5 20.6 20.7 20.7 20.8 20.8 20.9 21.0 21.0 21.1 21.2 21.3 21.4 21.5 21.6 21.7 21.9 20.0 20.0 20.1 20.1 20.2 20.3 20.3 20.4 20.5 20.5 20.6 20.7 20.7 20.8 20.9 20.9 21.0 21.1 21.2 21.3 21.4 21.5 21.7 21.8 22.0 22.1 20.0 20.0 20.1 20.1 20.2 20.3 20.3 20.4 20.5 20.5 20.6 20.7 20.8 20.8 20.9 21.0 21.1 21.2 21.3 21.4 21.5 21.7 21.8 22.0 22.2 22.4 20.0 20.0 20.1 20.1 20.2 20.3 20.4 20.4 20.5 20.6 20.6 20