<?xml version="1.0"?>
<VTKFile type="PolyData" version="1.0" byte_order="LittleEndian" header_type="UInt64">
<PolyData>
<Piece NumberOfPoints="196" NumberOfVerts="0" NumberOfLines="0" NumberOfPolys="0">
    <Points>
        <DataArray type="Float32" NumberOfComponents="3" format="ascii">
        16.3273 11.8090 4.8798 16.0942 12.3133 5.1129 16.4149 8.0669 7.7128 16.9978 11.6214 4.2093 16.9874 11.7281 4.2198 16.3936 11.0018 5.7411 15.9923 9.8484 7.7942 16.9278 11.5650 4.2793 16.2092 11.6961 4.9979 16.1179 10.8897 6.4557 16.6455 10.4690 7.0725 17.0328 11.8387 4.1743 16.5562 8.9348 7.4579 16.6601 10.9814 4.6496 16.8408 11.5977 4.3663 16.2495 9.7941 7.8234 16.2036 11.4927 5.0035 16.1100 12.0454 5.0971 16.6474 12.2095 5.0463 16.4954 11.1538 6.4070 16.1229 10.7989 6.3957 16.6741 12.7725 4.5330 16.5866 10.6983 6.9212 17.1398 11.8030 4.0673 16.7475 11.4673 4.4596 16.1616 10.4268 7.7269 16.7780 12.2029 4.8146 16.7567 12.5613 4.4504 16.9113 9.4825 7.5246 16.8056 9.3146 7.7631 16.6862 10.7273 5.7159 16.9266 8.5176 7.1788 16.9878 11.6582 4.6809 16.9637 9.1608 7.4852 16.9695 10.9320 5.6969 16.6981 12.3681 5.3556 16.7765 12.1001 4.7469 17.0469 12.1461 4.1602 16.8582 9.6771 7.4313 16.3478 10.8969 5.6941 16.5962 9.0512 7.9830 16.9090 9.4910 7.4774 16.8167 9.4493 7.8207 16.5088 9.1469 7.7297 16.4995 11.0461 4.9116 16.4007 11.1982 7.0299 16.6669 11.3958 4.5402 16.1555 12.0296 5.0516 16.5762 11.6778 4.6309 16.6124 8.3917 7.7238 16.4569 10.4435 6.8680 16.8472 11.6954 4.3599 16.8511 11.5002 4.3560 16.9102 9.5447 7.5578 16.9063 12.5003 4.3008 16.9764 12.3708 4.2307 16.9563 8.2700 7.4498 16.5605 12.5596 5.4576 16.3159 12.6726 5.2054 16.5007 10.8169 5.6491 16.3909 10.9852 6.1390 16.5925 8.7837 7.8641 16.9127 11.5086 6.2035 16.3908 10.2888 7.8122 16.1232 12.5097 5.0839 16.5713 11.3280 5.3973 16.2202 12.2763 4.9869 17.2460 12.0840 3.9611 16.3710 11.4091 4.8361 17.1002 12.0167 4.8872 16.3228 11.4187 5.1878 16.8889 9.6497 7.6916 16.7252 10.2105 7.0848 17.0454 12.1038 4.9624 16.2256 11.8496 4.9815 16.8077 11.3436 4.3994 17.0337 8.6255 7.6938 16.3958 12.9285 5.0631 16.1882 12.3947 5.1239 16.2923 11.4619 4.9148 16.2342 12.3813 4.9729 16.3159 12.9273 4.8912 16.4655 11.6011 4.7416 16.3432 9.3889 7.8765 16.1819 11.9167 5.5572 16.3608 11.6021 4.8463 16.3051 12.5521 5.5181 16.8310 11.7335 6.4006 16.3751 9.6960 7.8398 17.1191 11.5409 4.0880 16.8813 12.2384 5.3794 16.5039 10.6570 7.4651 16.5721 11.6362 6.8008 16.6175 12.4958 5.4885 16.4072 10.3625 7.8155 17.1673 12.1792 4.0398 16.6798 9.1239 7.8143 16.3613 10.0731 7.8778 16.1811 11.5398 5.5458 16.2177 10.2966 7.8317 16.5394 11.5779 4.6677 16.7206 12.3486 6.1725 16.7642 10.3711 6.8414 16.5021 12.5363 6.0913 16.2522 11.5864 5.5196 16.4135 11.9250 6.4654 17.3605 11.8045 3.8466 16.5191 9.4409 7.9053 17.0083 8.9320 7.5596 16.7364 10.4753 7.2445 16.9158 9.5916 7.7024 16.8424 12.3236 5.5740 16.1367 12.5526 5.0704 16.3758 11.7614 4.8313 16.9890 11.7911 5.9082 16.3340 11.9193 4.8732 16.9071 12.4468 4.3000 16.5139 11.2692 6.8916 16.9401 11.2699 5.0528 16.3433 11.8164 6.7388 16.1353 12.0396 5.7594 16.9920 12.3965 4.5915 16.7642 10.1255 6.9941 16.1281 12.2916 5.0790 17.0214 12.0977 5.0344 16.7385 11.5999 6.7958 16.8135 9.9106 7.7482 16.9928 9.2018 7.6614 16.7429 10.4760 7.0432 17.2101 12.2706 3.9970 17.0328 8.7820 7.7271 16.8833 12.6705 4.8084 16.6503 10.9309 7.2489 16.1558 12.6728 5.0513 16.7154 12.3284 5.5197 16.7584 10.4024 6.9224 16.5660 11.5708 4.6411 16.8238 10.9838 6.8387 16.4367 11.2820 5.8261 16.1714 10.4989 7.8413 16.3145 12.4839 5.1266 16.7783 11.7551 4.4288 16.7324 10.4907 6.9126 16.7300 10.1627 7.6712 16.8787 11.1437 6.4506 16.3228 9.6016 8.0046 16.5136 11.4858 4.6935 16.2300 11.5627 5.1017 16.6859 12.3780 5.6607 16.0685 12.1927 5.1386 16.7516 9.7326 7.7654 16.3394 11.3880 6.7901 17.2628 12.0353 3.9941 16.9830 9.0516 7.7731 16.5395 12.6530 5.2185 16.2423 9.7842 8.0439 16.9972 9.2551 8.0951 16.1399 10.0068 8.0841 16.9553 12.2242 5.4229 16.3243 12.4447 6.5056 16.9071 11.2438 5.7680 17.2146 11.7345 4.3290 16.1880 12.0891 6.0387 17.0247 9.1542 7.8500 16.5239 10.0402 7.8280 16.2296 10.2202 7.9372 16.7213 10.5585 7.3845 16.6139 12.7361 5.6699 16.7057 12.6525 5.7742 16.1181 12.2339 5.3463 16.4080 10.6445 7.7728 16.4517 12.1105 6.8526 16.4379 11.6575 5.1403 16.5848 11.4981 5.3999 16.9018 12.2345 6.1738 16.4207 12.3693 6.3522 16.4188 9.5656 8.2466 16.2152 12.3634 4.9919 16.2013 12.1338 5.0058 16.3912 11.4892 5.3354 16.2823 11.8358 6.3272 16.1430 10.6619 7.7779 16.7001 10.0172 7.7725 16.4760 11.8200 4.7312 16.4517 12.7130 5.5481 16.3965 10.4552 7.6222 16.3618 11.2145 6.4554 16.8682 12.7253 5.4663 16.2203 10.5969 7.9413 16.4979 11.5921 4.7092 16.2414 11.8688 5.8648 17.0696 11.9061 4.5885 16.1263 12.3066 5.4152 16.3944 12.2166 6.3212 16.8439 11.6308 4.7718 16.6382 11.8198 4.5689 
        </DataArray>
    </Points>
    <PointData>
        <DataArray type="Float32" Name="tag" format="ascii">
            63.0000 95.0000 131.0000 175.0000 179.0000 207.0000 219.0000 247.0000 287.0000 299.0000 351.0000 367.0000 379.0000 383.0000 419.0000 455.0000 491.0000 515.0000 607.0000 627.0000 739.0000 879.0000 935.0000 947.0000 1003.0000 1023.0000 1063.0000 1083.0000 1099.0000 1119.0000 1131.0000 1171.0000 1187.0000 1211.0000 1307.0000 1327.0000 1411.0000 1467.0000 1551.0000 1567.0000 1791.0000 1803.0000 1855.0000 1859.0000 1883.0000 1907.0000 1927.0000 1963.0000 1991.0000 2035.0000 2047.0000 2063.0000 2075.0000 2083.0000 2127.0000 2167.0000 2191.0000 2207.0000 2311.0000 2391.0000 2475.0000 2491.0000 2563.0000 2623.0000 2711.0000 2767.0000 2807.0000 2859.0000 2959.0000 2971.0000 3023.0000 3087.0000 3091.0000 3099.0000 3167.0000 3195.0000 3271.0000 3287.0000 3319.0000 3323.0000 3355.0000 3359.0000 3375.0000 3423.0000 3463.0000 3495.0000 3531.0000 3567.0000 3607.0000 3615.0000 3655.0000 3663.0000 3711.0000 3751.0000 3775.0000 3783.0000 3795.0000 3819.0000 3839.0000 3883.0000 3903.0000 3927.0000 3943.0000 3967.0000 3983.0000 4015.0000 4019.0000 4067.0000 4127.0000 4183.0000 4187.0000 4199.0000 4231.0000 4247.0000 4271.0000 4291.0000 4331.0000 4395.0000 4403.0000 4415.0000 4463.0000 4479.0000 4515.0000 4519.0000 4535.0000 4551.0000 4555.0000 4583.0000 4615.0000 4623.0000 4643.0000 4699.0000 4751.0000 4767.0000 4803.0000 4843.0000 4851.0000 4891.0000 4899.0000 4947.0000 4971.0000 4995.0000 5015.0000 5035.0000 5107.0000 5115.0000 5139.0000 5227.0000 5251.0000 5255.0000 5271.0000 5299.0000 5411.0000 5455.0000 5459.0000 5643.0000 5655.0000 5703.0000 5727.0000 5739.0000 5767.0000 5795.0000 5799.0000 5815.0000 5867.0000 5891.0000 6055.0000 6095.0000 6103.0000 6123.0000 6207.0000 6275.0000 6367.0000 6411.0000 6415.0000 6427.0000 6431.0000 6507.0000 6539.0000 6559.0000 6627.0000 6663.0000 6671.0000 6691.0000 6767.0000 6795.0000 6851.0000 6879.0000 6911.0000 6927.0000 6943.0000 7035.0000 7063.0000 7075.0000 7111.0000 7143.0000 
         </DataArray>
    </PointData>
</Piece>
</PolyData>
</VTKFile>