<?xml version="1.0"?>
<VTKFile type="PolyData" version="1.0" byte_order="LittleEndian" header_type="UInt64">
<PolyData>
<Piece NumberOfPoints="4190" NumberOfVerts="0" NumberOfLines="0" NumberOfPolys="0">
    <Points>
        <DataArray type="Float32" NumberOfComponents="3" format="ascii">
        16.4292 9.3871 0.9287 19.4081 11.1322 2.1063 16.9447 9.7932 0.6759 16.8226 5.5424 5.1574 17.3699 8.6652 0.7892 17.2099 9.6036 0.7046 16.9470 8.9985 1.3317 15.9612 9.2189 2.7804 15.7649 10.1784 2.0968 18.8901 10.8813 2.4985 15.4633 10.6887 4.7661 18.8374 10.3117 2.3697 18.8945 10.2708 2.3126 18.7143 10.2402 2.4928 15.5466 10.6513 4.7034 15.0824 7.9016 4.1843 15.5660 10.0000 0.5422 15.0429 10.4527 1.5114 15.1704 10.0849 1.8261 15.5297 10.0000 0.6880 21.4416 11.8952 8.2827 15.3486 9.9278 1.0283 18.2353 12.0428 0.6060 18.1525 12.7109 0.6060 21.5827 12.0896 8.3039 16.5248 11.7756 0.6603 19.3781 10.8734 1.4517 15.2100 8.4037 4.0780 15.5962 8.9407 2.0189 16.7323 7.7521 1.9797 16.1088 1.6695 5.8568 15.6877 6.1380 1.7140 19.0512 11.4163 1.5768 19.5393 11.2218 2.5738 17.1505 4.6345 2.0195 18.9135 11.7180 1.6007 18.7516 10.2983 2.4555 18.6091 10.2575 2.5980 16.7071 9.3068 1.7652 16.9300 9.6316 0.9613 18.5732 10.1268 1.7347 18.3018 9.5053 1.4426 20.5907 4.5947 4.5768 19.1242 11.0356 1.6913 16.2465 7.8967 3.8209 18.8304 10.6851 2.3966 16.1261 8.2988 3.3335 18.4670 10.9188 8.3940 17.0245 9.8240 1.0503 19.2175 10.7450 1.3645 18.7880 10.6584 2.4192 18.5795 11.2407 8.3940 16.2109 8.1086 3.4011 16.5126 8.9840 2.0948 17.0450 8.0123 3.4521 17.5357 9.8043 0.5533 19.1609 10.8536 1.2967 18.8180 11.0198 2.5609 18.3073 14.1915 8.3940 18.6032 14.2508 8.3940 18.6100 14.1613 8.3940 17.6605 10.4728 8.3940 16.6880 3.9780 5.3966 18.9343 13.0005 8.3940 18.2856 14.1193 8.3940 17.3201 7.1462 4.9543 18.2640 14.4850 8.3940 17.7897 7.9105 3.4894 18.4005 9.3316 1.6069 18.8174 6.8664 3.5141 17.6722 10.2332 8.3940 19.2069 6.3809 4.0510 19.0330 12.5288 8.3940 18.8865 13.8465 8.3940 15.1618 14.0330 8.3940 15.4148 10.5366 8.3940 19.1086 12.5140 8.3940 19.0767 13.2510 8.3940 15.2613 14.6808 8.3940 18.6751 10.7740 2.5320 19.0702 13.2941 8.3940 18.8442 11.8694 8.3940 18.3186 10.8711 8.3940 20.3253 2.9832 5.7493 17.9990 9.3207 1.8730 18.5571 8.6359 3.1653 15.0322 11.0580 1.5421 15.1478 11.1830 1.1765 15.1576 10.2772 1.2727 19.2838 8.3323 5.0867 18.2782 10.7160 2.9289 17.9079 10.9404 3.2992 16.8161 10.0085 2.7331 17.9798 10.6886 8.3940 17.9953 11.1878 3.2118 18.6357 10.4025 2.5714 16.6932 10.3476 8.3940 15.3873 10.4180 8.3940 16.8305 10.2385 8.3940 18.4352 7.8052 5.0256 17.7693 11.4016 3.6729 15.6787 10.6243 8.3940 18.7234 13.9157 8.3940 15.2942 10.0000 1.4273 17.7047 14.4293 8.3940 15.1654 10.0000 0.5916 15.4415 10.0000 1.3858 18.2140 6.9637 5.6759 17.2311 14.6564 8.3940 15.2417 9.4688 3.7809 18.7886 11.0990 2.6197 17.4671 10.2026 8.3940 18.3178 10.2783 2.8893 15.7956 10.3616 8.3940 15.6887 10.3337 8.3940 18.7212 11.2979 8.3940 18.8052 10.6721 2.3920 18.7037 10.7997 2.5034 16.4944 10.1438 8.3940 18.2443 10.7406 8.3940 17.4637 10.3342 8.3940 18.1943 11.1522 8.3940 19.0869 12.4743 8.3940 17.3176 11.0156 3.8896 15.0228 12.4328 1.7557 15.3085 12.5349 1.0057 18.3471 10.6075 2.8601 17.6109 10.3672 8.3940 16.0122 10.5693 8.3940 18.6074 11.6824 8.3940 15.2387 8.5473 3.3297 18.5281 10.7939 2.6790 18.3953 10.4851 2.8118 18.7201 13.0932 8.3940 17.6897 14.5960 8.3940 16.2519 10.1877 8.3940 16.3357 8.9947 5.7208 16.5536 10.2200 8.3940 17.4224 14.7281 8.3940 18.5714 11.3219 8.3940 15.0629 10.7938 2.0990 18.6847 10.6534 2.5224 17.5638 10.8599 3.6433 15.8005 14.5518 8.3940 15.5073 9.9629 0.9531 18.7665 10.3729 2.4406 18.5447 11.3660 8.3940 15.5191 9.9614 1.0585 18.4946 10.4918 2.7125 15.7616 9.6392 3.9554 18.7342 13.5048 8.3940 18.9265 12.9628 8.3940 15.8406 10.7294 8.3940 17.3825 14.7831 8.3940 15.2504 11.7718 5.3188 16.9222 14.5303 8.3940 17.2830 10.4286 8.3940 18.5642 11.5192 8.3940 18.3811 11.1870 8.3940 15.0073 10.0000 1.2069 18.3782 10.3429 2.8289 18.3472 10.7738 2.8599 18.6879 10.3198 2.5192 18.3492 10.6253 2.8579 15.3786 9.4643 0.8237 18.4869 10.2937 2.7202 18.4433 10.7549 2.7638 16.2982 2.3860 5.0704 18.7606 10.5324 2.4465 18.2013 10.0000 2.6904 15.6080 7.8512 1.2485 18.5967 10.6881 2.6104 18.3151 10.9690 8.3940 18.9415 12.1778 8.3940 17.0327 14.5071 8.3940 18.9134 12.7750 8.3940 18.1005 10.7389 8.3940 18.7583 10.3761 2.4488 18.7548 10.6810 2.4523 17.7545 14.5742 8.3940 17.8967 14.2813 8.3940 15.1564 13.9920 8.3940 16.8495 10.6171 8.3940 15.6294 9.5278 0.9692 18.6475 10.2062 2.5596 17.0878 10.2747 8.3940 15.4439 14.3788 8.3940 15.4660 14.3681 8.3940 15.1673 11.0945 8.3940 18.6061 12.4465 8.3940 18.4438 13.5818 8.3940 18.5869 13.2698 8.3940 15.5092 10.9385 8.3940 18.6105 12.4707 8.3940 15.7296 10.7537 8.3940 18.5446 10.7965 2.6625 18.8277 10.5706 2.3794 18.0270 13.9367 8.3940 18.5377 11.9476 8.3940 18.5167 13.8495 8.3940 17.6412 10.8152 8.3940 15.1087 9.8355 1.6481 15.1559 11.2157 8.3940 18.2538 11.4796 8.3940 15.8281 9.4315 0.8558 18.6112 11.7353 8.3940 18.5428 10.4711 2.6643 16.5887 10.4501 8.3940 15.5962 10.9156 8.3940 15.1446 9.4042 1.2361 18.7158 10.2641 2.4913 15.8801 14.5642 8.3940 18.5959 12.3774 8.3940 18.4354 13.5900 8.3940 15.3139 8.7442 1.6159 18.2116 10.2572 2.9955 15.3795 10.5819 8.3940 15.4397 10.5697 8.3940 16.9783 14.4839 8.3940 15.5854 10.5893 8.3940 15.6643 14.1469 8.3940 17.0936 14.6521 8.3940 17.5006 14.3846 8.3940 18.8094 12.5872 8.3940 18.8548 12.2848 8.3940 17.3325 10.4816 8.3940 17.3233 10.4621 8.3940 17.4035 10.7849 8.3940 18.4635 11.9572 8.3940 18.3325 11.2707 8.3940 15.1892 11.0824 8.3940 17.2633 14.3388 8.3940 15.1965 11.1307 8.3940 15.5693 14.1144 8.3940 18.5133 10.6102 2.6938 17.1453 14.3692 8.3940 18.5712 12.3968 8.3940 15.8209 10.4991 8.3940 18.3606 11.2440 8.3940 17.9436 13.7984 8.3940 18.4058 13.1799 8.3940 16.8930 14.6722 8.3940 16.0998 6.3302 2.2509 16.3016 10.4443 8.3940 15.7085 14.1054 8.3940 18.2584 13.8713 8.3940 18.0646 13.9369 8.3940 15.7859 14.2524 8.3940 15.4886 11.0195 8.3940 15.6182 14.1071 8.3940 18.5310 12.5783 8.3940 15.9178 7.8288 2.0265 18.0703 11.3430 8.3940 18.7937 12.1759 8.3940 16.3659 6.2769 0.8317 16.6828 10.5520 8.3940 18.6975 11.8499 8.3940 17.3870 14.5912 8.3940 16.0652 14.5217 8.3940 18.2978 13.9526 8.3940 18.4377 12.3220 8.3940 18.2922 10.2733 2.9149 15.4730 10.7617 8.3940 18.6368 13.2459 8.3940 18.5622 12.3227 8.3940 16.8296 10.4073 8.3940 17.0663 8.0279 1.9845 18.6380 13.3632 8.3940 18.4451 13.3357 8.3940 16.0748 14.6365 8.3940 15.2085 11.4047 8.3940 18.3392 11.5655 8.3940 16.3804 14.6244 8.3940 16.1756 10.5208 8.3940 18.2603 13.5871 8.3940 16.9318 14.3809 8.3940 18.5958 12.4155 8.3940 17.6845 10.8781 8.3940 17.8080 10.9997 8.3940 17.4880 14.1429 8.3940 16.0943 14.2137 8.3940 17.9369 14.2179 8.3940 18.4647 11.5445 8.3940 16.1745 3.0660 5.2230 18.4997 10.5245 2.7074 18.2819 10.3141 2.9252 18.0347 11.0613 3.1724 18.4693 10.4426 2.7378 18.0127 11.1847 3.1944 17.3397 10.0000 1.6255 18.7294 10.7001 2.4777 16.7603 10.6944 8.3940 18.1690 10.0456 3.0381 16.6072 8.0322 5.3585 18.4981 13.4372 8.3940 15.9743 10.8758 8.3940 18.3499 10.7342 2.8572 15.4993 13.8311 8.3940 18.1291 11.0800 3.0780 18.1070 10.7029 3.1001 18.5841 10.3916 2.6230 18.3405 13.8448 8.3940 16.0572 14.1776 8.3940 17.9176 14.2151 8.3940 17.3881 14.3711 8.3940 15.2506 11.1309 8.3940 18.6123 10.3117 2.5948 17.8458 10.5301 3.3613 15.9655 5.4706 6.2186 18.3035 11.5252 8.3940 15.6262 14.3785 8.3940 17.4129 10.0117 2.1739 16.2614 14.3338 8.3940 18.2677 13.6039 8.3940 18.0702 11.3938 8.3940 18.2340 10.6570 2.9731 16.5117 7.9080 4.0854 16.5279 10.8163 8.3940 17.3265 14.0261 8.3940 15.4443 14.2217 8.3940 17.0187 14.3637 8.3940 17.6460 10.0000 2.2215 18.4353 12.8484 8.3940 18.3657 12.5979 8.3940 17.6217 11.0754 8.3940 16.7538 8.5505 2.7192 15.5539 10.7928 8.3940 18.3378 12.0048 8.3940 15.5486 13.9812 8.3940 16.0653 10.7248 8.3940 17.6385 11.0310 8.3940 18.6589 10.6771 2.5482 18.3149 12.2244 8.3940 18.0635 10.1498 3.1436 18.6406 12.5429 8.3940 18.3231 12.8976 8.3940 15.2095 13.6388 8.3940 16.7033 14.4432 8.3940 18.2390 13.4813 8.3940 18.0481 13.3621 8.3940 16.8386 14.3662 8.3940 17.2167 10.7401 0.7800 18.4383 12.4540 8.3940 15.2563 11.6192 8.3940 16.4517 9.4917 4.8531 16.7068 8.9372 1.4122 18.4590 13.0323 8.3940 16.7869 14.5081 8.3940 17.4285 14.2584 8.3940 15.3782 13.6402 8.3940 18.2885 13.1854 8.3940 18.1125 13.5622 8.3940 18.0226 13.7264 8.3940 16.7160 14.1516 8.3940 16.2011 10.7722 8.3940 16.3751 10.8986 8.3940 15.8518 14.2996 8.3940 18.0786 13.9903 8.3940 18.4067 12.5493 8.3940 16.6747 10.7238 8.3940 18.3961 10.7547 2.8110 15.4897 11.0256 8.3940 18.0946 11.3417 8.3940 16.7746 8.6811 3.5991 15.4813 14.1446 8.3940 15.8480 14.3212 8.3940 18.5104 10.3914 2.6967 18.5347 11.9762 8.3940 18.5633 11.9794 8.3940 17.7493 10.9459 8.3940 15.7011 14.0105 8.3940 16.6416 14.1389 8.3940 17.4146 9.9458 2.7054 15.4764 11.0767 8.3940 18.0102 10.0000 2.5172 18.7201 10.7637 2.4870 18.8058 10.7616 2.3913 18.3404 10.6457 2.8667 18.6737 10.4347 2.5335 18.4121 10.6039 2.7950 18.5580 10.2219 2.6491 18.5603 10.4693 2.6468 17.9087 11.1675 3.2984 18.2734 11.6518 8.3940 17.7372 14.3071 8.3940 18.0108 13.7777 8.3940 17.1112 14.6190 8.3940 17.7879 10.9279 8.3940 16.3352 14.6695 8.3940 17.0071 9.2605 1.4936 17.1356 10.8039 8.3940 16.1035 10.7508 8.3940 18.3945 13.7174 8.3940 18.1996 10.0000 2.3705 16.7444 14.6007 8.3940 16.4250 10.3736 0.9718 16.3258 14.4387 8.3940 16.2069 3.6187 4.0467 16.0845 5.7363 6.6961 17.9046 13.8305 8.3940 17.1115 14.4483 8.3940 15.4082 11.2224 8.3940 15.6698 11.0457 8.3940 18.1474 11.5203 8.3940 18.4655 11.6023 8.3940 16.6803 8.4080 3.3375 17.4677 10.6377 8.3940 15.7037 10.9533 8.3940 18.1188 11.4286 8.3940 16.8168 14.3105 8.3940 18.6539 12.2935 8.3940 18.4613 11.9152 8.3940 15.3921 14.1723 8.3940 18.1640 13.7532 8.3940 17.8512 11.2860 8.3940 18.4277 12.5808 8.3940 15.4781 14.0092 8.3940 18.0683 11.4141 8.3940 18.6197 12.4944 8.3940 15.5401 11.2189 8.3940 17.2068 14.5580 8.3940 15.3428 13.8031 8.3940 15.7938 10.6347 8.3940 16.9797 14.4844 8.3940 16.5631 10.83
[...]
    <PointData>
        <DataArray type="Float32" Name="tag" format="ascii">
            131.0000 2475.0000 5703.0000 8603.0000 9027.0000 9963.0000 10311.0000 10611.0000 12211.0000 12411.0000 12631.0000 13023.0000 13875.0000 14151.0000 14215.0000 14587.0000 17007.0000 18383.0000 18851.0000 19547.0000 21147.0000 21911.0000 23367.0000 23951.0000 24743.0000 25151.0000 30395.0000 30607.0000 33583.0000 35963.0000 39383.0000 39655.0000 39943.0000 41515.0000 41895.0000 42015.0000 43367.0000 46347.0000 46683.0000 50003.0000 63635.0000 65379.0000 66299.0000 47043.0000 47311.0000 47411.0000 48039.0000 48363.0000 48551.0000 49643.0000 49771.0000 50039.0000 50047.0000 50311.0000 50735.0000 50815.0000 51271.0000 52923.0000 53515.0000 53535.0000 53539.0000 55283.0000 56307.0000 57183.0000 58003.0000 58471.0000 58875.0000 59927.0000 59947.0000 60495.0000 60563.0000 62419.0000 62951.0000 63815.0000 63855.0000 63911.0000 63927.0000 64587.0000 64607.0000 64683.0000 65551.0000 66439.0000 66479.0000 66523.0000 66703.0000 66955.0000 84223.0000 82459.0000 84967.0000 72203.0000 71559.0000 80583.0000 84911.0000 67267.0000 68511.0000 68607.0000 69479.0000 69487.0000 69491.0000 69651.0000 69995.0000 70879.0000 70911.0000 71147.0000 71627.0000 71799.0000 71955.0000 72047.0000 72331.0000 72379.0000 72523.0000 73115.0000 73623.0000 74755.0000 74783.0000 74839.0000 74955.0000 75267.0000 75595.0000 75631.0000 75651.0000 75683.0000 75719.0000 76459.0000 76475.0000 76863.0000 77059.0000 77315.0000 77351.0000 77451.0000 77663.0000 78239.0000 79527.0000 79911.0000 79967.0000 79999.0000 80563.0000 80831.0000 81735.0000 81759.0000 81939.0000 82155.0000 82235.0000 82543.0000 82731.0000 83019.0000 83415.0000 83623.0000 83867.0000 84667.0000 85127.0000 85171.0000 85227.0000 85251.0000 85379.0000 85955.0000 85959.0000 86047.0000 86067.0000 86155.0000 99303.0000 105495.0000 97147.0000 101803.0000 97043.0000 101699.0000 100807.0000 102899.0000 101655.0000 99935.0000 102635.0000 105207.0000 86895.0000 86915.0000 86979.0000 86999.0000 87807.0000 88083.0000 88195.0000 88559.0000 88663.0000 89423.0000 89475.0000 89511.0000 89731.0000 90231.0000 90283.0000 90303.0000 90331.0000 90363.0000 90915.0000 90963.0000 91771.0000 91823.0000 91843.0000 91967.0000 92115.0000 92415.0000 93203.0000 93219.0000 93343.0000 93471.0000 93959.0000 93983.0000 94087.0000 94103.0000 94379.0000 94623.0000 94655.0000 94843.0000 95035.0000 95295.0000 95307.0000 95419.0000 95467.0000 95515.0000 96019.0000 96555.0000 96571.0000 96643.0000 96667.0000 96679.0000 96771.0000 97871.0000 97887.0000 97919.0000 97923.0000 97939.0000 98015.0000 98019.0000 98615.0000 99327.0000 99611.0000 99615.0000 99647.0000 100215.0000 100295.0000 100303.0000 100319.0000 100331.0000 100383.0000 100479.0000 101067.0000 101083.0000 101099.0000 101127.0000 101167.0000 101195.0000 101199.0000 101203.0000 101279.0000 101495.0000 101991.0000 102159.0000 102207.0000 102287.0000 102335.0000 103019.0000 103031.0000 103039.0000 103075.0000 103475.0000 103955.0000 104007.0000 104159.0000 104183.0000 104315.0000 104903.0000 104923.0000 104935.0000 104943.0000 104979.0000 105603.0000 105639.0000 105775.0000 105795.0000 106419.0000 106487.0000 106531.0000 106583.0000 106639.0000 106667.0000 106683.0000 106723.0000 118583.0000 110443.0000 121587.0000 121423.0000 116319.0000 122951.0000 121583.0000 120615.0000 123667.0000 116047.0000 119071.0000 112803.0000 117011.0000 120551.0000 109731.0000 111415.0000 112259.0000 111103.0000 111923.0000 111919.0000 111903.0000 112751.0000 124351.0000 118519.0000 107815.0000 120519.0000 111871.0000 120011.0000 111067.0000 123519.0000 124311.0000 114759.0000 118167.0000 115931.0000 124287.0000 115923.0000 115919.0000 125063.0000 119699.0000 114371.0000 120467.0000 111023.0000 113603.0000 110191.0000 118935.0000 123451.0000 112655.0000 122775.0000 117423.0000 118927.0000 119647.0000 116519.0000 118115.0000 112647.0000 121143.0000 124231.0000 118095.0000 111003.0000 119615.0000 118079.0000 118075.0000 118879.0000 114323.0000 124183.0000 124927.0000 124179.0000 118859.0000 112591.0000 112587.0000 122671.0000 115831.0000 118847.0000 118843.0000 114291.0000 118039.0000 126603.0000 112551.0000 120331.0000 118835.0000 109327.0000 121079.0000 125771.0000 111675.0000 118011.0000 122615.0000 125743.0000 120291.0000 125739.0000 124535.0000 118779.0000 124087.0000 121507.0000 122259.0000 116919.0000 118419.0000 116143.0000 123747.0000 119191.0000 119179.0000 107295.0000 107339.0000 107391.0000 107423.0000 107483.0000 107555.0000 108091.0000 108099.0000 108195.0000 108231.0000 108251.0000 108255.0000 108371.0000 108451.0000 108459.0000 109031.0000 109035.0000 109119.0000 109191.0000 109791.0000 109983.0000 110759.0000 110803.0000 110831.0000 110899.0000 110903.0000 111467.0000 111475.0000 111515.0000 111607.0000 111623.0000 111655.0000 113155.0000 113203.0000 113419.0000 113447.0000 113483.0000 113487.0000 114039.0000 114915.0000 114927.0000 114943.0000 115667.0000 115767.0000 116331.0000 116391.0000 117167.0000 117311.0000 117855.0000 117967.0000 118591.0000 119419.0000 120111.0000 120251.0000 121031.0000 121611.0000 121643.0000 121651.0000 121743.0000 122375.0000 122503.0000 122539.0000 123099.0000 123127.0000 123131.0000 123159.0000 123203.0000 123215.0000 123219.0000 123227.0000 123259.0000 123939.0000 124043.0000 124659.0000 124663.0000 124747.0000 124791.0000 124799.0000 124823.0000 125439.0000 125483.0000 125547.0000 125603.0000 125655.0000 126351.0000 126383.0000 126427.0000 126443.0000 126479.0000 140835.0000 137603.0000 146967.0000 136687.0000 135659.0000 142447.0000 136563.0000 132915.0000 135619.0000 131959.0000 146823.0000 130987.0000 130215.0000 130983.0000 145879.0000 130207.0000 135751.0000 130195.0000 127731.0000 135591.0000 129547.0000 136515.0000 133731.0000 128547.0000 137411.0000 142311.0000 130175.0000 130935.0000 135507.0000 128691.0000 131159.0000 132851.0000 138307.0000 135715.0000 145815.0000 127659.0000 146735.0000 127639.0000 130907.0000 146903.0000 143235.0000 145019.0000 130883.0000 136431.0000 129239.0000 137515.0000 129223.0000 130847.0000 145763.0000 130079.0000 131807.0000 129175.0000 134535.0000 140543.0000 136387.0000 129151.0000 129147.0000 134499.0000 130015.0000 127495.0000 132699.0000 139783.0000 128347.0000 128339.0000 135331.0000 136319.0000 134455.0000 132687.0000 129071.0000 134423.0000 127443.0000 134395.0000 133483.0000 141259.0000 137295.0000 143831.0000 140455.0000 146619.0000 142159.0000 146611.0000 129943.0000 132643.0000 143815.0000 129935.0000 135259.0000 131651.0000 129919.0000 130631.0000 145639.0000 139651.0000 142919.0000 145607.0000 146567.0000 132555.0000 140379.0000 131583.0000 142091.0000 142891.0000 130567.0000 138051.0000 143731.0000 129859.0000 145547.0000 142859.0000 134259.0000 132507.0000 128979.0000 142823.0000 135139.0000 139583.0000 146515.0000 128967.0000 138895.0000 129495.0000 145479.0000 140307.0000 145475.0000 142775.0000 127299.0000 141115.0000 140303.0000 136147.0000 136143.0000 142003.0000 138007.0000 145459.0000 136135.0000 144575.0000 133359.0000 144563.0000 145431.0000 145927.0000 144551.0000 127103.0000 127123.0000 127259.0000 128059.0000 128067.0000 128115.0000 128795.0000 128847.0000 129579.0000 129623.0000 129799.0000 130475.0000 131279.0000 131391.0000 131415.0000 132187.0000 132207.0000 132211.0000 132307.0000 132423.0000 132439.0000 133063.0000 133111.0000 133123.0000 133211.0000 133275.0000 133339.0000 134059.0000 134147.0000 134151.0000 134899.0000 134919.0000 134927.0000 134947.0000 134991.0000 135787.0000 135835.0000 135839.0000 135891.0000 135987.0000 135999.0000 136003.0000 136027.0000 136055.0000 136087.0000 136103.0000 136755.0000 136935.0000 136943.0000 137687.0000 137691.0000 137727.0000 137771.0000 137843.0000 137867.0000 137975.0000 138683.0000 138711.0000 138787.0000 138839.0000 139315.0000 139395.0000 139463.0000 139491.0000 140147.0000 140171.0000 140879.0000 140919.0000 140943.0000 141047.0000 141631.0000 141643.0000 141659.0000 141715.0000 141775.0000 141819.0000 141823.0000 141855.0000 141867.0000 141879.0000 142631.0000 142691.0000 142727.0000 143375.0000 143455.0000 143539.0000 143583.0000 143635.0000 143639.0000 144259.0000 144415.0000 144479.0000 144519.0000 145183.0000 145187.0000 145287.0000 145295.0000 145315.0000 146107.0000 146147.0000 146191.0000 146207.0000 146211.0000 146247.0000 146251.0000 146271.0000 146323.0000 146419.0000 152583.0000 164643.0000 151543.0000 147891.0000 156203.0000 147731.0000 160827.0000 160823.0000 149647.0000 147839.0000 155195.0000 156275.0000 147819.0000 151427.0000 162635.0000 150499.0000 168231.0000 152491.0000 166319.0000 151259.0000 152239.0000 157871.0000 148495.0000 152223.0000 151211.0000 148479.0000 152203.0000 159719.0000 157803.0000 155915.0000 149359.0000 149355.0000 151151.0000 155899.0000 151135.0000 152151.0000 156903.0000 158735.0000 147383.0000 158719.0000 171451.0000 150235.0000 150227.0000 151103.0000 160567.0000 160563.0000 152115.0000 154891.0000 156843.0000 169699.0000 150207.0000 153015.0000 157683.0000 160535.0000 147339.0000 171391.0000 148327.0000 164215.0000 158675.0000 149227.0000 154871.0000 152995.0000 152103.0000 158667.0000 160507.0000 151079.0000 166099.0000 152099.0000 160503.0000 154863.0000 162339.0000 160491.0000 147103.0000 147143.0000 147211.0000 147223.0000 147235.0000 147239.0000 147283.0000 147287.0000 147983.0000 148051.0000 148067.0000 148199.0000 148275.0000 148867.0000 148995.0000 149003.0000 149087.0000 149103.0000 149111.0000 149131.0000 149219.0000 149903.0000 149991.0000 150019.0000 150079.0000 150867.0000 150879.0000 150911.0000 150923.0000 150935.0000 150975.0000 150999.0000 151003.0000 151699.0000 151723.0000 151823.0000 151839.0000 151935.0000 151971.0000 151999.0000 152003.0000 152039.0000 152087.0000 152595.0000 152599.0000 152631.0000 152643.0000 152667.0000 152695.0000 152795.0000 152863.0000 152867.0000 152891.0000 152895.0000 152971.0000 152975.0000 153535.0000 153651.0000 153735.0000 153827.0000 153831.0000 153851.0000 153943.0000 153959.0000 153963.0000 154519.0000 154587.0000 154707.0000 154719.0000 154743.0000 154819.0000 155431.0000 155447.0000 155491.0000 155675.0000 155711.0000 156375.0000 156531.0000 156587.0000 156607.0000 156687.0000 156699.0000 156707.0000 156711.0000 156799.0000 157275.0000 157287.0000 157319.0000 157371.0000 157427.0000 157435.0000 157447.0000 157471.0000 157579.0000 158259.0000 158267.0000 158523.0000 158527.0000 158603.0000 158655.0000 159143.0000 159303.0000 159331.0000 159371.0000 159387.0000 159395.0000 159435.0000 159503.0000 159531.0000 159559.0000 160095.0000 160111.0000 160151.0000 160207.0000 160303.0000 160311.0000 160395.0000 160411.0000 160415.0000 160459.0000 161107.0000 161115.0000 161163.0000 161195.0000 161211.0000 161219.0000 161387.0000 161439.0000 162935.0000 162987.0000 163031.0000 163051.0000 163103.0000 163147.0000 163203.0000 163315.0000 163331.0000 163395.0000 163787.0000 163875.0000 164127.0000 164759.0000 164767.0000 164939.0000 165067.0000 165099.0000 165167.0000 165171.0000 165207.0000 165299.0000 165767.0000 165771.0000 165863.0000 165903.0000 166679.0000 166791.0000 166859.0000 166903.0000 167059.0000 167471.0000 167619.0000 167727.0000 167803.0000 168611.0000 168619.0000 168935.0000 169147.0000 170199.0000 170207.0000 170211.0000 170227.0000 170299.0000 170383.0000 170527.0000 170571.0000 170823.0000 171811.0000 171823.0000 171827.0000 171967.0000 171983.0000 172083.0000 172103.0000 172107.0000 172111.0000 172115.0000 172119.0000 172163.0000 172219.0000 172263.0000 172639.0000 172711.0000 172855.0000 203239.0000 213711.0000 205907.0000 201727.0000 207667.0000 179895.0000 192599.0000 213439.0000 194039.0000 207371.0000 187983.0000 195523.0000 178207.0000 192575.0000 202899.0000 203159.0000 198467.0000 183119.0000 201707.0000 201407.0000 189851.0000 181535.0000 174915.0000 204307.0000 204655.0000 192523.0000 204651.0000 195771.0000 192487.0000 174883.0000 190907.0000 204291.0000 200207.0000 183247.0000 208763.0000 179811.0000 206107.0000 210279.0000 187895.0000 213335.0000 210503.0000 191295.0000 200167.0000 210219.0000 181615.0000 183019.0000 183015.0000 204223.0000 204531.0000 195671.0000 195335.0000 192743.0000 210179.0000 196879.0000 183003.0000 186195.0000 181395.0000 201627.0000 196859.0000 202751.0000 203075.0000 197187.0000 184587.0000 195295.0000 204191.0000 202731.0000 178027.0000 178023.0000 213247.0000 174731.0000 194151.0000 197155.0000 178003.0000 200131.0000 193771.0000 213575.0000 195227.0000 206011.0000 179623.0000 198235.0000 187739.0000 193719.0000 208567.0000 181599.0000 201107.0000 184851.0000 186091.0000 196779.0000 181263.0000 179579.0000 208547.0000 205627.0000 208539.0000 207491.0000 188087.0000 203023.0000 205935.0000 173447.0000 173587.0000 173703.0000 173707.0000 173907.0000 174567.0000 175163.0000 175171.0000 175251.0000 175259.0000 175351.0000 175399.0000 175407.0000 175455.0000 176155.0000 176191.0000 176235.0000 176343.0000 176775.0000 176779.0000 176787.0000 176947.0000 176995.0000 177063.0000 177091.0000 177095.0000 177403.0000 177683.0000 178423.0000 178515.0000 178583.0000 178635.0000 178743.0000 178799.0000 179495.0000 180083.0000 180247.0000 180279.0000 180287.0000 180295.0000 180319.0000 180339.0000 180447.0000 180455.0000 180543.0000 180759.0000 180883.0000 180931.0000 181819.0000 182039.0000 182091.0000 182263.0000 182487.0000 183371.0000 183383.0000 183435.0000 183603.0000 183627.0000 183683.0000 183687.0000 183783.0000 184403.0000 185003.0000 185047.0000 185303.0000 185335.0000 185351.0000 185375.0000 185483.0000 185859.0000 187079.0000 187111.0000 187471.0000 187539.0000 187563.0000 188279.0000 188391.0000 188443.0000 188527.0000 188583.0000 188643.0000 188819.0000 189115.0000 189143.0000 189299.0000 189935.0000 189967.0000 190083.0000 190191.0000 190267.0000 190291.0000 190355.0000 190359.0000 190395.0000 191415.0000 191475.0000 191487.0000 191523.0000 191579.0000 191703.0000 191771.0000 191807.0000 191935.0000 191955.0000 192175.0000 193007.0000 193043.0000 193091.0000 193147.0000 193155.0000 193263.0000 193271.0000 193275.0000 193339.0000 193371.0000 193399.0000 193403.0000 194395.0000 194435.0000 194599.0000 194623.0000 194747.0000 194831.0000 194871.0000 194907.0000 195083.0000 195119.0000 195859.0000 195887.0000 195919.0000 196071.0000 196243.0000 196263.0000 196287.0000 196355.0000 196363.0000 197447.0000 197491.0000 197591.0000 197687.0000 197859.0000 197931.0000 197947.0000 198991.0000 199051.0000 199083.0000 199087.0000 199099.0000 199127.0000 199195.0000 199227.0000 199395.0000 200303.0000 200451.0000 200519.0000 200547.0000 200635.0000 200639.0000 200643.0000 201027.0000 201771.0000 201823.0000 201871.0000 202055.0000 202111.0000 202163.0000 202219.0000 202283.0000 202315.0000 202515.0000 203267.0000 203371.0000 203479.0000 203495.0000 203607.0000 203611.0000 203639.0000 203879.0000 204775.0000 204867.0000 204887.0000 204895.0000 204927.0000 204983.0000 205391.0000 205407.0000 205547.0000 205595.0000 206375.0000 206419.0000 206479.0000 206503.0000 206603.0000 206643.0000 206651.0000 206655.0000 206823.0000 206991.0000 207735.0000 207767.0000 207811.0000 207895.0000 207959.0000 207971.0000 208055.0000 208099.0000 208115.0000 208159.0000 209291.0000 209367.0000 209415.0000 209451.0000 209483.0000 209519.0000 209539.0000 209543.0000 209551.0000 209591.0000 209595.0000 209947.0000 210023.0000 210027.0000 210671.0000 210683.0000 210735.0000 210739.0000 210803.0000 210815.0000 210827.0000 210871.0000 210943.0000 210983.0000 211027.0000 211107.0000 211259.0000 211503.0000 212251.0000 212363.0000 212367.0000 212387.0000 212399.0000 212419.0000 212439.0000 212443.0000 212455.0000 212519.0000 212567.0000 212727.0000 212823.0000 212839.0000 212959.0000 212963.0000 212967.0000 213083.0000 224071.0000 215383.0000 222627.0000 243359.0000 236031.0000 225271.0000 222559.0000 247639.0000 240251.0000 247631.0000 234615.0000 246103.0000 252255.0000 222227.0000 236003.0000 238807.0000 243011.0000 241731.0000 215315.0000 229543.0000 232631.0000 239859.0000 246051.0000 228347.0000 242947.0000 252211.0000 232951.0000 250983.0000 232587.0000 252195.0000 249455.0000 250595.0000 235695.0000 234275.0000 250587.0000 221075.0000 232931.0000 241367.0000 232911.0000 238467.0000 237351.0000 235663.0000 244807.0000 249431.0000 247863.0000 250539.0000 252139.0000 241335.0000 238455.0000 221055.0000 226639.0000 234511.0000 247383.0000 235647.0000 244359.0000 223687.0000 247835.0000 239707.0000 226587.0000 245927.0000 232863.0000 226575.0000 250951.0000 229355.0000 252495.0000 235619.0000 223639.0000 252047.0000 244755.0000 249375.0000 219215.0000 247303.0000 226531.0000 235579.0000 247291.0000 241199.0000 252475.0000 250947.0000 232827.0000 235871.0000 232811.0000 235863.0000 246319.0000 244731.0000 232775.0000 241587.0000 235811.0000 235803.0000 247791.0000 243135.0000 250895.0000 241519.0000 228243.0000 243083.0000 244647.0000 250871.0000 252387.0000 249255.0000 238595.0000 249179.0000 213811.0000 213843.0000 214171.0000 214175.0000 214211.0000 214323.0000 214767.0000 215391.0000 215399.0000 215499.0000 215567.0000 215627.0000 215923.0000 216315.0000 216887.0000 216943.0000 216999.0000 217019.0000 217023.0000 217147.0000 217187.0000 217195.0000 217683.0000 218479.0000 218559.0000 218611.0000 218635.0000 219739.0000 219947.0000 219995.0000 220123.0000 220151.0000 220219.0000 221367.0000 221443.0000 221527.0000 221643.0000 222971.0000 223047.0000 223159.0000 223447.0000 224103.0000 224163.0000 224359.0000 224419.0000 224447.0000 224459.0000 224975.0000 225551.0000 225591.0000 225631.0000 225679.0000 225771.0000 225823.0000 225831.0000 225847.0000 225899.0000 226039.0000 226443.0000 226979.0000 227027.0000 227075.0000 227103.0000 227119.0000 227163.0000 227183.0000 227195.0000 227203.0000 227247.0000 227303.0000 227307.0000 227611.0000 228455.0000 228471.0000 228499.0000 228527.0000 228535.0000 228595.0000 228979.0000 229263.0000 229887.0000 229967.0000 230195.0000 230211.0000 230247.0000 230271.0000 230283.0000 230303.0000 230843.0000 230947.0000 231487.0000 231495.0000 231571.0000 231647.0000 231671.0000 231687.0000 231695.0000 231807.0000 231811.0000 232411.0000 233055.0000 233063.0000 233163.0000 233247.0000 233291.0000 233379.0000 233387.0000 233475.0000 233551.0000 233587.0000 233859.0000 234727.0000 234791.0000 234803.0000 234879.0000 234919.0000 234947.0000 234975.0000 235039.0000 235079.0000 235263.0000 235459.0000 235527.0000 236095.0000 236183.0000 236215.0000 236267.0000 236391.0000 236611.0000 236767.0000 236847.0000 237771.0000 237807.0000 237843.0000 238875.0000 238903.0000 238951.0000 238999.0000 239051.0000 239119.0000 239187.0000 239199.0000 240307.0000 240459.0000 240551.0000 240555.0000 240667.0000 240703.0000 241091.0000 241823.0000 241827.0000 241859.0000 241883.0000 241955.0000 242047.0000 242099.0000 242131.0000 242135.0000 242227.0000 242271.0000 242531.0000 242707.0000 243531.0000 243675.0000 243719.0000 243919.0000 244927.0000 244959.0000 245115.0000 245175.0000 245227.0000 245259.0000 245267.0000 245311.0000 245351.0000 245803.0000 245815.0000 245819.0000 245847.0000 246463.0000 246615.0000 246647.0000 246703.0000 246747.0000 246763.0000 247255.0000 248007.0000 248067.0000 248139.0000 248191.0000 248203.0000 248247.0000 248351.0000 248439.0000 248551.0000 248735.0000 249607.0000 249643.0000 249667.0000 249711.0000 249755.0000 249831.0000 249859.0000 249879.0000 249979.0000 250431.0000 250455.0000 251191.0000 251211.0000 251327.0000 251391.0000 251567.0000 251875.0000 277011.0000 264063.0000 262367.0000 278867.0000 264047.0000 288211.0000 278847.0000 288187.0000 267099.0000 276455.0000 282007.0000 272767.0000 284463.0000 276443.0000 287591.0000 255667.0000 291271.0000 265159.0000 274555.0000 283899.0000 281991.0000 258547.0000 267067.0000 258543.0000 258539.0000 261871.0000 267059.0000 281979.0000 256743.0000 271311.0000 255243.0000 289471.0000 258915.0000 269459.0000 255631.0000 265703.0000 291223.