<?xml version="1.0"?>
<VTKFile type="PolyData" version="1.0" byte_order="LittleEndian" header_type="UInt64">
<PolyData>
<Piece NumberOfPoints="188" NumberOfVerts="0" NumberOfLines="0" NumberOfPolys="0">
    <Points>
        <DataArray type="Float32" NumberOfComponents="3" format="ascii">
        14.4561 5.1973 6.3170 14.6430 9.4394 2.7735 14.7836 10.1032 2.1856 14.6041 9.7916 2.5647 14.8502 8.2732 2.9665 14.1240 8.5269 4.4063 14.7986 4.1347 3.7728 14.3714 7.9488 3.0439 14.7778 7.7746 2.1794 14.3967 7.3882 5.0146 14.6318 10.1275 3.6710 13.5309 5.3217 6.8293 14.1790 7.4614 5.2474 14.7366 9.4068 3.5165 14.8317 9.2356 2.3803 14.6010 10.5231 3.3295 14.8042 10.5752 4.0858 14.6711 9.5583 3.2707 14.6774 10.0274 2.6783 14.7095 6.8391 4.9385 14.7137 9.8691 2.6352 14.6531 10.5444 3.3813 14.4442 7.0072 4.3222 9.3862 9.8612 7.9686 14.7160 7.1671 4.1958 12.5156 3.6908 6.7467 14.4895 8.6698 3.4750 13.2495 4.8146 5.5233 14.6944 8.7358 2.6694 14.6818 8.7188 3.4949 14.8554 9.1163 3.1590 14.8172 8.8606 3.4096 14.6086 6.1964 5.2079 14.7545 9.3695 3.6491 14.6259 5.5753 5.9858 12.3089 8.4927 5.8156 13.2887 10.1465 3.9916 13.0073 8.0640 5.1076 13.7417 9.7878 3.6734 14.0468 9.7758 2.3313 13.3126 10.2535 4.9557 14.7297 4.6599 6.5795 12.8985 7.0550 5.2912 13.9241 11.1582 4.4483 12.9981 6.7792 5.2835 14.0657 10.7032 3.9266 14.3585 9.6221 3.4293 14.0329 10.8986 3.0856 11.3037 7.6730 6.6246 10.9582 9.1659 6.6906 11.5408 9.1284 6.4219 14.2078 11.3557 3.3666 14.1330 10.7178 1.8998 13.6258 10.1115 2.9176 13.7550 8.6369 3.7275 12.7492 10.0838 5.3851 13.9278 8.0341 3.8417 13.9129 8.3998 3.7177 13.6904 10.0869 2.8067 14.0294 6.8810 4.3697 13.9514 9.5876 2.6650 14.5040 8.9710 2.5415 12.5034 6.9454 5.7541 14.1050 6.8065 4.4920 12.8979 5.1420 6.6336 13.3950 4.0987 6.5790 14.9734 3.9460 5.8004 14.0000 10.0421 3.0658 14.2844 10.1279 1.7865 14.2118 9.8203 1.9297 11.6469 6.9076 6.4012 14.2264 10.1494 2.0484 12.9902 7.2006 5.1324 14.2183 9.5198 2.5450 13.4596 8.4952 4.2745 14.0573 8.3355 3.7061 13.3301 3.6398 6.9264 13.7481 5.9933 5.2501 13.8427 5.3480 5.6126 14.3329 9.5320 3.1001 13.7302 8.2971 4.0753 14.3828 8.3742 3.1812 14.7273 8.0314 2.8455 14.2381 8.1282 3.6041 13.3553 4.4559 6.5248 14.6613 5.9482 4.0537 13.8126 8.0232 4.6430 11.9647 3.7743 6.9360 14.5051 7.4244 4.0645 14.6153 5.8107 4.0300 13.2992 6.7797 5.2646 14.0726 8.5003 4.2920 13.8592 4.4225 5.6755 14.1603 4.9502 5.1560 14.2002 7.4618 4.9163 13.7901 5.5751 6.4463 14.9054 7.4229 2.7034 14.0576 8.5442 4.2906 14.3693 5.6502 4.0920 14.4794 4.8691 4.5682 14.7164 8.1395 3.1326 13.5880 6.5384 5.1102 14.8073 9.6429 2.2995 14.3602 4.7116 5.0298 13.9129 4.2874 5.3942 14.3634 11.5816 3.3074 13.6066 6.4627 6.1354 14.5942 6.8975 4.9455 14.7641 8.8560 3.6540 14.1072 5.8281 6.5514 14.6926 6.9318 4.9035 13.8866 6.3072 6.1169 14.3065 5.5008 6.4108 14.3200 12.4564 8.3940 14.3651 11.9037 8.3940 14.5484 7.1621 4.8125 14.4370 7.8361 4.2795 14.8619 8.7763 4.7390 14.2036 2.2461 6.8302 14.3138 7.6350 5.8299 14.9850 2.8540 6.2448 14.3236 5.8646 6.0888 14.6241 1.7885 6.9020 14.5254 6.9927 5.8655 14.1405 7.1112 6.0223 14.5829 8.0101 5.3426 14.4356 2.6862 6.5597 14.7764 8.7270 4.3094 14.8715 3.4769 5.8093 14.6794 5.8511 5.8902 14.4521 11.9004 8.3940 14.4253 8.0572 5.5058 14.5140 13.0191 8.3940 14.5183 12.5348 8.3940 14.2114 8.2413 4.8808 14.3901 8.4324 4.6997 14.0929 7.3841 6.1164 14.9138 8.8789 4.4813 14.5922 7.4208 4.7809 14.5829 5.3508 6.4477 14.5786 12.5271 8.3940 13.3749 2.0587 6.9361 14.2143 6.8426 6.1382 14.8007 8.6416 4.0731 14.3197 6.1745 5.6947 14.8466 9.3127 3.7224 14.5459 11.3007 3.3325 11.3255 8.4378 7.1231 14.8054 6.7665 5.2571 14.5065 12.3715 8.3940 14.6716 7.6642 4.7927 13.1852 13.5976 6.2665 14.6298 4.4878 6.9996 13.9502 9.4957 5.4015 14.6451 1.7878 7.4549 14.7568 12.5340 8.3940 13.5024 13.8278 5.9801 14.3914 6.8269 5.2889 14.8072 8.4511 5.2237 14.4921 9.2233 5.4708 14.8501 6.6559 4.6713 14.7974 7.6181 4.2877 14.4129 7.7157 6.1724 14.8036 11.8110 8.3940 14.7930 6.5793 4.7721 14.4007 9.6806 4.6902 14.3775 10.5687 5.6278 14.5229 7.5913 6.0092 13.7318 13.8365 5.8946 14.7274 12.1299 8.3940 14.9740 12.4350 7.8629 13.8455 10.0268 4.9103 13.7461 10.7560 6.2214 14.4762 11.4212 5.0837 14.6679 12.8762 8.3940 14.6585 6.6901 5.4008 14.6766 12.2999 8.3940 14.5667 8.5370 5.4823 14.7223 5.3510 6.4843 14.3926 9.4694 5.1454 14.7213 13.0972 8.3940 14.5976 8.7597 5.3037 14.7263 11.8822 8.3940 14.9179 7.0255 4.6012 14.8180 7.9940 4.9222 14.6914 7.6758 5.4407 14.8059 11.9253 8.3940 14.7958 13.0578 8.3940 
        </DataArray>
    </Points>
    <PointData>
        <DataArray type="Float32" Name="tag" format="ascii">
            19307.0000 15139.0000 20847.0000 28435.0000 33571.0000 29691.0000 39535.0000 98559.0000 97911.0000 79995.0000 87707.0000 84131.0000 83247.0000 82583.0000 95439.0000 89335.0000 84467.0000 92131.0000 91423.0000 92939.0000 92919.0000 87995.0000 86623.0000 89763.0000 93455.0000 88435.0000 89155.0000 92787.0000 93607.0000 91279.0000 77883.0000 84863.0000 84695.0000 141215.0000 136783.0000 160427.0000 160103.0000 171079.0000 167843.0000 167635.0000 159383.0000 147207.0000 174479.0000 158219.0000 165831.0000 159167.0000 171279.0000 158299.0000 163851.0000 151143.0000 158659.0000 157131.0000 159087.0000 157879.0000 155991.0000 160523.0000 153147.0000 152283.0000 156507.0000 151567.0000 155583.0000 157419.0000 166163.0000 154447.0000 162731.0000 154219.0000 149179.0000 164431.0000 162587.0000 168415.0000 171367.0000 162051.0000 171795.0000 164587.0000 171507.0000 165731.0000 157291.0000 162183.0000 160667.0000 169935.0000 167647.0000 169999.0000 157543.0000 169595.0000 170991.0000 153783.0000 177835.0000 176091.0000 176035.0000 152703.0000 177575.0000 174579.0000 156719.0000 156559.0000 183111.0000 184647.0000 155291.0000 176099.0000 155419.0000 154407.0000 171107.0000 176551.0000 173075.0000 151171.0000 157191.0000 76783.0000 227819.0000 213079.0000 213715.0000 208503.0000 211987.0000 216539.0000 208675.0000 63887.0000 58819.0000 211439.0000 217631.0000 226403.0000 224175.0000 224987.0000 221647.0000 227735.0000 221339.0000 217803.0000 234119.0000 214835.0000 221867.0000 208559.0000 217011.0000 215083.0000 73151.0000 231267.0000 76515.0000 92403.0000 228111.0000 220823.0000 235475.0000 216407.0000 255659.0000 223563.0000 87739.0000 213879.0000 234107.0000 247395.0000 222623.0000 208667.0000 91603.0000 143071.0000 206099.0000 66419.0000 249507.0000 272867.0000 265279.0000 283947.0000 261027.0000 96747.0000 278579.0000 253827.0000 276587.0000 291495.0000 258707.0000 250819.0000 286135.0000 84295.0000 250747.0000 269051.0000 276663.0000 276275.0000 275115.0000 98671.0000 87139.0000 278127.0000 267543.0000 281739.0000 98675.0000 251063.0000 92515.0000 283783.0000 258391.0000 291195.0000 100251.0000 291771.0000 97927.0000 246011.0000 270815.0000 278299.0000 94639.0000 105807.0000 
         </DataArray>
    </PointData>
</Piece>
</PolyData>
</VTKFile>