<?xml version="1.0"?>
<VTKFile type="RectilinearGrid" version="1.0" byte_order="LittleEndian" header_type="UInt64">
<RectilinearGrid WholeExtent="25 50 0 25 0 15">
<Piece Extent="25 50 0 25 0 15">
<Coordinates>
<DataArray type="Float64" Name="Array X-Axis" format="ascii" RangeMin="15.0" RangeMax="30.0">
15.0 15.6 16.2 16.8 17.4 18.0 18.6 19.2 19.8 20.4 21.0 21.6 22.2 22.8 23.4 24.0 24.6 25.2 25.8 26.4 27.0 27.6 28.2 28.8 29.4 30.0 
</DataArray>
<DataArray type="Float64" Name="Array Y-Axis" format="ascii" RangeMin="0.0" RangeMax="15.0">
0.0 0.6 1.2 1.8 2.4 3.0 3.6 4.2 4.8 5.4 6.0 6.6 7.2 7.8 8.4 9.0 9.6 10.2 10.8 11.4 12.0 12.6 13.2 13.8 14.4 15.0 
</DataArray>
<DataArray type="Float64" Name="Array Z-Axis" format="ascii" RangeMin="0.0" RangeMax="9.0">
0.0 0.6 1.2 1.8 2.4 3.0 3.6 4.2 4.8 5.4 6.0 6.6 7.2 7.8 8.4 9.0 
</DataArray>
</Coordinates>
<PointData>
<DataArray Name="TEMPERATURE" NumberOfComponents="1" type="Float64" format="ascii">
20.0 20.0 20.0 20.0 20.0 20.0 20.1 20.1 20.1 20.1 20.1 20.1 20.0 20.0 20.0 20.0 20.0 20.0 20.0 20.0 20.0 20.0 20.0 20.0 20.0 20.0 20.1 20.1 20.1 20.1 20.1 20.1 20.1 20.1 20.1 20.1 20.1 20.1 20.1 20.1 20.1 20.1 20.1 20.1 20.1 20.1 20.1 20.0 20.1 20.1 20.0 20.0 20.1 20.1 20.2 20.2 20.2 20.2 20.2 20.2 20.2 20.2 20.2 20.2 20.2 20.1 20.1 20.1 20.1 20.1 20.1 20.1 20.1 20.1 20.1 20.1 20.1 20.0 20.2 20.2 20.2 20.3 20.3 20.3 20.3 20.3 20.3 20.3 20.3 20.3 20.2 20.2 20.2 20.2 20.2 20.2 20.2 20.2 20.2 20.2 20.2 20.1 20.1 20.0 20.3 20.3 20.4 20.4 20.4 20.4 20.4 20.4 20.4 20.4 20.4 20.3 20.3 20.3 20.3 20.3 20.3 20.3 20.3 20.3 20.3 20.3 20.2 20.1 20.1 20.0 20.4 20.4 20.5 20.5 20.5 20.5 20.5 20.5 20.5 20.5 20.5 20.4 20.4 20.4 20.4 20.4 20.4 20.3 20.4 20.4 20.4 20.3 20.2 20.1 20.1 20.0 20.5 20.5 20.6 20.6 20.7 20.6 20.6 20.6 20.7 20.7 20.6 20.5 20.5 20.5 20.5 20.5 20.4 20.5 20.5 20.5 20.4 20.3 20.2 20.1 20.1 20.0 20.6 20.7 20.7 20.8 20.8 20.8 20.8 20.8 20.8 20.8 20.7 20.7 20.6 20.6 20.6 20.6 20.6 20.6 20.6 20.5 20.4 20.3 20.2 20.1 20.1 20.0 20.7 20.8 20.9 20.9 20.9 20.9 21.0 21.0 21.0 21.0 20.9 20.8 20.8 20.7 20.7 20.7 20.8 20.8 20.7 20.5 20.4 20.3 20.2 20.2 20.1 20.0 20.8 20.9 21.0 21.1 21.1 21.1 21.1 21.2 21.2 21.1 21.0 21.0 20.9 20.9 20.9 20.9 20.9 20.8 20.6 20.5 20.4 20.3 20.2 20.2 20.1 20.0 21.0 21.1 21.2 21.3 21.4 21.4 21.4 21.4 21.4 21.3 21.2 21.1 21.1 21.1 21.1 21.1 21.0 20.8 20.6 20.5 20.4 20.4 20.3 20.2 20.1 20.0 21.2 21.3 21.4 21.5 21.6 21.7 21.7 21.7 21.7 21.6 21.4 21.3 21.3 21.3 21.3 21.2 21.0 20.8 20.7 20.6 20.5 20.4 20.3 20.2 20.1 20.0 21.4 21.5 21.6 21.8 21.9 22.0 22.0 22.1 22.0 21.9 21.7 21.6 21.6 21.6 21.5 21.2 21.0 20.9 20.7 20.6 20.5 20.4 20.3 20.2 20.1 20.1 21.6 21.7 21.9 22.1 22.3 22.5 22.5 22.4 22.4 22.1 22.0 22.0 22.0 21.8 21.5 21.2 21.1 20.9 20.8 20.7 20.5 20.4 20.3 20.2 20.1 20.1 21.8 22.0 22.2 22.5 22.8 22.9 23.0 23.0 22.8 22.6 22.4 22.4 22.2 21.9 21.5 21.3 21.1 21.0 20.8 20.7 20.6 20.4 20.3 20.2 20.1 20.1 22.1 22.4 22.7 23.1 23.4 23.6 23.7 23.7 23.5 23.2 22.9 22.7 22.3 21.9 21.6 21.4 21.2 21.0 20.9 20.7 20.6 20.5 20.4 20.2 20.1 20.1 22.5 22.8 23.2 23.6 24.1 24.5 24.7 24.5 24.2 23.8 23.4 23.0 22.4 22.0 21.8 21.5 21.3 21.1 20.9 20.8 20.6 20.5 20.4 20.3 20.1 20.1 23.0 23.4 23.8 24.4 25.1 25.8 26.0 25.6 25.1 24.5 23.8 23.1 22.6 22.2 21.9 21.6 21.4 21.2 21.0 20.9 20.7 20.6 20.4 20.3 20.2 20.1 23.6 24.0 24.5 25.4 26.4 27.5 27.7 27.0 26.3 25.4 24.2 23.4 22.9 22.5 22.1 21.8 21.6 21.4 21.2 21.0 20.8 20.7 20.5 20.4 20.2 20.1 24.3 24.9 25.8 28.1 31.1 32.5 31.9 30.2 28.5 26.3 25.0 24.1 23.3 22.8 22.4 22.1 21.8 21.6 21.3 21.1 20.9 20.7 20.6 20.4 20.2 20.1 25.1 26.2 27.7 31.6 35.4 36.6 35.1 34.9 32.0 27.4 26.0 24.8 23.8 23.2 22.7 22.3 21.9 21.7 21.4 21.2 20.9 20.7 20.5 20.3 20.2 20.1 26.0 27.4 29.9 36.7 41.7 20.0 20.0 37.8 33.6 28.3 26.6 25.3 24.3 23.5 22.9 22.4 22.0 21.8 21.5 21.2 20.9 20.7 20.5 20.4 20.2 20.1 26.2 27.9 30.6 37.7 42.8 20.0 20.0 35.6 32.9 28.7 26.4 25.2 24.4 23.6 22.9 22.5 22.1 21.7 21.4 21.2 20.9 20.7 20.5 20.3 20.2 20.1 25.6 27.4 29.7 33.1 35.5 37.1 34.7 31.5 30.4 27.8 25.7 24.7 24.1 23.4 22.8 22.4 22.0 21.6 21.4 21.2 20.9 20.7 20.5 20.3 20.2 20.1 24.8 26.0 27.5 29.3 31.4 33.3 32.1 28.7 27.1 26.0 24.8 23.9 23.5 23.0 22.5 22.1 21.8 21.5 21.3 21.1 20.9 20.7 20.5 20.3 20.2 20.1 23.1 24.6 25.4 26.5 27.7 28.7 28.8 27.1 25.6 24.7 23.9 23.3 22.9 22.5 22.2 21.9 21.6 21.3 21.2 21.0 20.8 20.7 20.5 20.3 20.1 20.1 20.0 20.0 20.0 20.0 20.0 20.0 20.1 20.1 20.1 20.1 20.1 20.0 20.0 20.0 20.0 20.0 20.0 20.0 20.0 20.0 20.0 20.0 20.0 20.0 20.0 20.0 20.1 20.1 20.1 20.1 20.1 20.1 20.1 20.1 20.1 20.1 20.1 20.1 20.1 20.1 20.1 20.1 20.1 20.1 20.1 20.1 20.0 20.0 20.1 20.1 20.0 20.0 20.1 20.1 20.1 20.1 20.2 20.2 20.2 20.2 20.2 20.2 20.2 20.2 20.1 20.1 20.1 20.1 20.1 20.1 20.1 20.1 20.1 20.1 20.1 20.1 20.1 20.0 20.2 20.2 20.2 20.2 20.3 20.3 20.3 20.3 20.3 20.3 20.3 20.2 20.2 20.2 20.2 20.2 20.2 20.2 20.2 20.2 20.2 20.2 20.2 20.1 20.1 20.0 20.3 20.3 20.3 20.4 20.4 20.4 20.4 20.4 20.4 20.4 20.4 20.3 20.3 20.3 20.3 20.3 20.3 20.2 20.2 20.3 20.3 20.3 20.2 20.1 20.1 20.0 20.4 20.4 20.4 20.5 20.5 20.5 20.5 20.5 20.5 20.5 20.5 20.4 20.4 20.4 20.4 20.4 20.3 20.3 20.3 20.4 20.4 20.3 20.2 20.1 20.1 20.0 20.5 20.5 20.6 20.6 20.6 20.6 20.6 20.6 20.7 20.6 20.6 20.5 20.5 20.5 20.5 20.4 20.4 20.5 20.5 20.5 20.4 20.3 20.2 20.1 20.1 20.0 20.6 20.6 20.7 20.7 20.8 20.8 20.8 20.8 20.8 20.8 20.7 20.6 20.6 20.6 20.6 20.5 20.6 20.6 20.6 20.5 20.4 20.3 20.2 20.1 20.1 20.0 20.7 20.7 20.8 20.9 20.9 20.9 20.9 21.0 21.0 20.9 20.8 20.8 20.7 20.7 20.7 20.7 20.8 20.8 20.7 20.5 20.4 20.3 20.2 20.1 20.1 20.0 20.8 20.9 21.0 21.1 21.1 21.1 21.1 21.2 21.2 21.1 21.0 20.9 20.9 20.9 20.9 20.9 20.9 20.8 20.6 20.5 20.4 20.3 20.2 20.1 20.1 20.0 21.0 21.1 21.2 21.3 21.4 21.4 21.4 21.4 21.4 21.3 21.2 21.1 21.1 21.1 21.1 21.1 21.0 20.8 20.6 20.5 20.4 20.3 20.2 20.2 20.1 20.0 21.1 21.3 21.4 21.6 21.6 21.7 21.7 21.8 21.7 21.6 21.4 21.3 21.3 21.3 21.3 21.2 21.0 20.8 20.6 20.5 20.4 20.3 20.3 20.2 20.1 20.0 21.3 21.5 21.6 21.8 22.0 22.1 22.1 22.1 22.0 21.8 21.7 21.6 21.6 21.6 21.5 21.2 21.0 20.8 20.7 20.6 20.5 20.4 20.3 20.2 20.1 20.0 21.6 21.7 21.9 22.2 22.4 22.6 22.6 22.5 22.4 22.2 22.0 22.0 22.0 21.8 21.5 21.2 21.0 20.9 20.7 20.6 20.5 20.4 20.3 20.2 20.1 20.1 21.9 22.1 22.3 22.6 22.9 23.1 23.2 23.1 22.9 22.6 22.5 22.4 22.2 21.9 21.5 21.3 21.1 20.9 20.8 20.6 20.5 20.4 20.3 20.2 20.1 20.1 22.2 22.5 22.8 23.2 23.6 23.9 24.1 23.9 23.6 23.2 23.0 22.8 22.4 22.0 21.6 21.4 21.2 21.0 20.8 20.7 20.6 20.4 20.3 20.2 20.1 20.1 22.7 23.0 23.3 23.8 24.5 25.1 25.3 24.9 24.3 23.9 23.5 23.1 22.5 22.1 21.8 21.5 21.3 21.1 20.9 20.7 20.6 20.5 20.4 20.2 20.1 20.1 23.2 23.6 24.0 24.8 25.8 26.6 26.8 26.1 25.3 24.7 24.0 23.3 22.7 22.3 22.0 21.6 21.4 21.2 21.0 20.8 20.7 20.6 20.4 20.3 20.1 20.1 23.7 24.3 25.2 27.3 28.8 29.6 29.5 28.0 26.8 25.6 24.5 23.6 23.0 22.6 22.2 21.8 21.6 21.3 21.1 21.0 20.8 20.7 20.5 20.4 20.2 20.1 24.4 25.2 26.9 35.6 43.9 43.6 39.4 33.4 29.0 26.6 25.2 24.2 23.4 22.9 22.5 22.1 21.8 21.5 21.3 21.1 20.9 20.7 20.5 20.4 20.2 20.1 25.4 26.6 29.8 42.4 79.7 159.5 170.7 82.5 35.0 28.1 26.3 25.1 24.0 23.3 22.8 22.3 22.0 21.7 21.4 21.1 20.9 20.7 20.5 20.3 20.2 20.1 26.6 28.4 32.7 45.6 128.8 397.1 384.2 115.2 40.3 30.5 27.2 25.8 24.6 23.7 23.0 22.5 22.0 21.7 21.4 21.2 20.9 20.7 20.5 20.3 20.2 20.1 27.2 29.2 32.4 45.7 153.9 404.5 332.5 103.9 44.0 31.1 27.1 25.7 24.6 23.7 23.0 22.5 22.1 21.7 21.4 21.2 20.9 20.7 20.5 20.3 20.2 20.1 26.3 28.2 32.0 41.2 94.4 158.0 131.7 71.9 39.2 28.7 26.1 24.9 24.2 23.5 22.8 22.4 22.0 21.6 21.3 21.1 20.9 20.7 20.5 20.3 20.2 20.1 25.0 26.4 30.0 34.3 37.4 38.5 35.7 32.3 29.0 26.2 25.0 24.1 23.5 23.0 22.5 22.1 21.8 21.5 21.3 21.1 20.9 20.7 20.5 20.3 20.2 20.1 23.2 24.9 26.2 27.6 28.6 29.8 29.8 27.9 26.2 25.1 24.2 23.5 23.0 22.6 22.2 21.9 21.5 21.3 21.1 21.0 20.8 20.6 20.4 20.3 20.1 20.1 20.0 20.0 20.0 20.0 20.0 20.0 20.0 20.0 20.0 20.0 20.0 20.0 20.0 20.0 20.0 20.0 20.0 20.0 20.0 20.0 20.0 20.0 20.0 20.0 20.0 20.0 20.1 20.1 20.1 20.1 20.1 20.1 20.1 20.1 20.1 20.1 20.1 20.1 20.1 20.1 20.0 20.0 20.0 20.0 20.0 20.0 20.0 20.0 20.0 20.0 20.0 20.0 20.1 20.1 20.1 20.1 20.1 20.1 20.1 20.2 20.2 20.2 20.2 20.1 20.1 20.1 20.1 20.1 20.1 20.1 20.1 20.1 20.1 20.1 20.1 20.1 20.1 20.0 20.2 20.2 20.2 20.2 20.2 20.2 20.2 20.3 20.3 20.3 20.2 20.2 20.2 20.2 20.2 20.2 20.2 20.2 20.1 20.1 20.2 20.2 20.2 20.1 20.1 20.0 20.2 20.3 20.3 20.3 20.3 20.3 20.3 20.4 20.4 20.4 20.3 20.3 20.3 20.2 20.2 20.2 20.2 20.2 20.2 20.2 20.3 20.3 20.2 20.1 20.0 20.0 20.3 20.4 20.4 20.4 20.5 20.4 20.4 20.5 20.5 20.5 20.4 20.4 20.3 20.3 20.3 20.3 20.3 20.3 20.3 20.4 20.4 20.3 20.2 20.1 20.0 20.0 20.4 20.5 20.5 20.6 20.6 20.6 20.6 20.6 20.6 20.6 20.5 20.5 20.4 20.4 20.4 20.4 20.4 20.4 20.5 20.5 20.4 20.3 20.2 20.1 20.0 20.0 20.5 20.6 20.6 20.7 20.7 20.7 20.7 20.8 20.8 20.7 20.6 20.6 20.5 20.5 20.5 20.5 20.6 20.6 20.6 20.5 20.3 20.2 20.2 20.1 20.0 20.0 20.6 20.7 20.8 20.9 20.9 20.9 20.9 21.0 21.0 20.9 20.8 20.7 20.7 20.7 20.7 20.7 20.8 20.8 20.6 20.4 20.3 20.2 20.2 20.1 20.1 20.0 20.8 20.9 21.0 21.1 21.1 21.2 21.2 21.2 21.2 21.1 20.9 20.9 20.8 20.8 20.9 20.9 20.9 20.8 20.6 20.4 20.3 20.2 20.2 20.1 20.1 20.0 20.9 21.0 21.2 21.3 21.4 21.4 21.5 21.5 21.4 21.3 21.1 21.1 21.0 21.1 21.1 21.1 21.0 20.7 20.6 20.4 20.3 20.3 20.2 20.1 20.1 20.0 21.1 21.2 21.4 21.6 21.7 21.7 21.8 21.8 21.7 21.5 21.4 21.3 21.3 21.4 21.3 21.2 21.0 20.7 20.6 20.5 20.4 20.3 20.2 20.1 20.1 20.0 21.3 21.5 21.7 21.9 22.1 22.2 22.3 22.2 22.0 21.8 21.7 21.7 21.7 21.7 21.5 21.2 20.9 20.7 20.6 20.5 20.4 20.3 20.2 20.2 20.1 20.0 21.6 21.8 22.0 22.2 22.5 22.7 22.8 22.7 22.5 22.2 22.1 22.1 22.0 21.8 21.5 21.2 21.0 20.8 20.7 20.6 20.4 20.3 20.3 20.2 20.1 20.0 21.9 22.1 22.4 22.7 23.1 23.4 23.6 23.4 23.0 22.7 22.7 22.6 22.3 21.9 21.6 21.3 21.1 20.9 20.7 20.6 20.5 20.4 20.3 20.2 20.1 20.0 22.4 22.6 22.9 23.4 23.9 24.4 24.7 24.5 23.8 23.4 23.2 22.9 22.5 22.0 21.7 21.4 21.2 21.0 20.8 20.6 20.5 20.4 20.3 20.2 20.1 20.0 22.8 23.2 23.7 24.3 25.0 26.0 26.3 25.6 24.8 24.2 23.8 23.2 22.7 22.2 21.8 21.5 21.3 21.0 20.9 20.7 20.5 20.4 20.3 20.2 20.1 20.1 23.4 24.1 24.8 27.2 28.8 29.0 29.3 27.7 25.9 25.0 24.3 23.6 22.9 22.4 22.0 21.7 21.4 21.1 20.9 20.8 20.6 20.5 20.4 20.3 20.1 20.1 24.2 25.1 28.4 40.3 43.8 38.5 38.9 35.8 29.9 26.2 24.9 24.0 23.3 22.7 22.2 21.9 21.6 21.3 21.1 20.9 20.7 20.6 20.5 20.3 20.2 20.1 24.9 26.9 39.0 73.8 92.6 84.4 79.4 58.2 33.8 27.3 25.6 24.6 23.8 23.1 22.6 22.1 21.8 21.5 21.2 21.0 20.8 20.6 20.5 20.3 20.2 20.1 25.8 28.5 44.0 93.3 177.0 274.1 290.0 166.4 54.3 30.1 26.8 25.5 24.5 23.6 23.0 22.4 22.0 21.7 21.4 21.1 20.9 20.6 20.5 20.3 20.2 20.1 27.2 30.1 41.3 89.3 244.1 448.5 450.8 237.0 76.1 36.0 28.4 26.5 25.1 24.1 23.3 22.6 22.1 21.7 21.4 21.1 20.9 20.6 20.5 20.3 20.1 20.1 28.0 31.4 39.3 77.2 247.4 432.4 385.3 191.4 67.6 36.6 28.5 26.5 25.0 24.1 23.3 22.7 22.1 21.7 21.4 21.1 20.9 20.7 20.5 20.3 20.1 20.1 26.9 30.2 37.1 60.2 149.1 230.0 197.5 106.7 46.2 30.7 27.0 25.5 24.5 23.7 23.0 22.5 22.1 21.6 21.3 21.1 20.9 20.7 20.5 20.3 20.1 20.1 25.2 27.7 33.0 44.2 51.9 51.6 46.1 38.0 31.5 27.2 25.6 24.5 23.8 23.1 22.6 22.2 21.8 21.5 21.2 21.0 20.8 20.6 20.5 20.3 20.1 20.1 23.5 25.7 27.6 30.7 32.8 33.0 32.1 29.4 27.3 25.9 24.8 23.9 23.2 22.7 22.2 21.9 21.6 21.3 21.1 20.9 20.7 20.6 20.4 20.3 20.1 20.1 20.0 20.0 20.0 20.0 20.0 20.0 20.0 20.0 20.0 20.0 20.0 20.0 20.0 20.0 20.0 20.0 20.0 20.0 20.0 20.0 20.0 20.0 20.0 20.0 20.0 20.0 20.1 20.1 20.1 20.1 20.1 20.1 20.1 20.1 20.1 20.1 20.1 20.1 20.1 20.1 20.0 20.0 20.0 20.0 20.0 20.0 20.0 20.0 20.0 20.0 20.0 20.0 20.1 20.1 20.1 20.1 20.2 20.1 20.1 20.2 20.2 20.2 20.1 20.1 20.1 20.1 20.1 20.1 20.1 20.1 20.1 20.1 20.1 20.1 20.1 20.1 20.0 20.0 20.2 20.2 20.2 20.2 20.2 20.2 20.2 20.3 20.3 20.3 20.2 20.2 20.2 20.2 20.2 20.2 20.2 20.2 20.1 20.1 20.2 20.2 20.2 20.1 20.0 20.0 20.3 20.3 20.3 20.3 20.3 20.3 20.3 20.4 20.4 20.4 20.3 20.3 20.3 20.2 20.2 20.2 20.2 20.2 20.2 20.2 20.3 20.3 20.2 20.1 20.0 20.0 20.3 20.4 20.4 20.5 20.5 20.5 20.5 20.5 20.5 20.5 20.4 20.4 20.3 20.3 20.3 20.3 20.3 20.3 20.3 20.4 20.4 20.3 20.2 20.1 20.0 20.0 20.4 20.5 20.5 20.6 20.6 20.6 20.6 20.6 20.6 20.6 20.5 20.5 20.4 20.4 20.4 20.4 20.4 20.4 20.5 20.5 20.4 20.3 20.2 20.1 20.0 20.0 20.5 20.6 20.7 20.7 20.8 20.8 20.8 20.8 20.8 20.7 20.6 20.6 20.6 20.5 20.5 20.5 20.6 20.6 20.6 20.5 20.3 20.2 20.1 20.1 20.0 20.0 20.7 20.7 20.8 20.9 21.0 21.0 21.0 21.0 21.0 20.9 20.8 20.7 20.7 20.7 20.7 20.7 20.7 20.7 20.6 20.4 20.3 20.2 20.2 20.1 20.1 20.0 20.8 20.9 21.0 21.1 21.2 21.2 21.2 21.3 21.2 21.1 21.0 20.9 20.9 20.9 20.9 20.9 20.9 20.8 20.6 20.4 20.3 20.2 20.2 20.1 20.1 20.0 21.0 21.0 21.2 21.3 21.4 21.5 21.5 21.5 21.4 21.3 21.2 21.1 21.1 21.1 21.1 21.1 20.9 20.7 20.6 20.4 20.3 20.3 20.2 20.1 20.1 20.0 21.2 21.3 21.4 21.6 21.7 21.8 21.9 21.9 21.7 21.6 21.4 21.4 21.4 21.4 21.3 21.2 20.9 20.7 20.6 20.5 20.4 20.3 20.2 20.1 20.1 20.0 21.4 21.5 21.7 21.9 22.1 22.3 22.4 22.3 22.1 21.9 21.8 21.7 21.7 21.7 21.5 21.2 20.9 20.8 20.6 20.5 20.4 20.3 20.2 20.1 20.1 20.0 21.7 21.8 22.0 22.3 22.6 22.8 22.9 22.9 22.6 22.3 22.2 22.2 22.1 21.9 21.6 21.3 21.0 20.8 20.7 20.6 20.5 20.4 20.3 20.2 20.1 20.0 22.0 22.2 22.4 22.8 23.1 23.4 23.7 23.6 23.1 22.9 22.8 22.6 22.3 22.0 21.6 21.3 21.1 20.9 20.8 20.6 20.5 20.4 20.3 20.2 20.1 20.0 22.4 22.8 23.1 23.5 23.9 24.4 24.8 24.6 24.0 23.6 23.4 23.0 22.6 22.2 21.8 21.5 21.2 21.0 20.8 20.7 20.5 20.4 20.3 20.2 20.1 20.0 23.0 23.5 24.3 24.9 25.5 26.7 27.2 26.4 25.2 24.5 24.0 23.4 22.8 22.3 21.9 21.6 21.3 21.1 20.9 20.7 20.6 20.4 20.3 20.2 20.1 20.1 23.6 24.6 27.2 30.2 30.6 31.4 32.3 29.6 26.6 25.4 24.6 23.8 23.1 22.5 22.1 21.7 21.4 21.2 21.0 20.8 20.6 20.5 20.4 20.2 20.1 20.1 25.0 27.9 38.3 54.1 53.1 45.7 47.0 41.2 31.4 26.8 25.3 24.3 23.5 22.9 22.3 21.9 21.6 21.3 21.1 20.9 20.7 20.6 20.4 20.3 20.1 20.1 26.5 36.5 70.6 120.1 130.2 113.4 110.1 80.9 42.1 30.2 26.5 24.9 24.0 23.3 22.7 22.2 21.9 21.5 21.3 21.0 20.8 20.6 20.5 20.3 20.2 20.1 28.0 39.7 87.9 182.4 266.1 316.5 329.4 234.7 98.8 38.9 28.0 25.9 24.8 23.9 23.2 22.6 22.1 21.7 21.4 21.1 20.9 20.6 20.5 20.3 20.2 20.1 29.5 38.6 86.8 204.5 362.5 479.1 494.9 353.9 149.1 48.5 29.5 27.1 25.6 24.4 23.6 22.8 22.2 21.8 21.4 21.1 20.9 20.6 20.5 20.3 20.1 20.1 30.3 39.6 80.9 180.1 333.6 422.7 393.1 256.0 103.5 44.5 29.7 27.3 25.7 24.4 23.5 22.9 22.3 21.8 21.4 21.1 20.9 20.7 20.5 20.3 20.1 20.1 28.5 34.4 56.1 112.4 191.8 224.0 187.1 108.7 48.6 33.7 28.0 26.3 25.0 24.0 23.2 22.7 22.2 21.8 21.4 21.1 20.9 20.7 20.5 20.3 20.1 20.1 25.6 28.6 36.0 57.1 72.1 70.6 59.6 44.1 34.8 28.8 26.3 25.1 24.1 23.3 22.8 22.3 21.9 21.6 21.3 21.0 20.8 20.6 20.5 20.3 20.1 20.1 23.6 26.2 28.2 33.7 38.3 37.7 34.9 31.3 28.7 26.7 25.3 24.3 23.5 22.9 22.4 22.0 21.7 21.4 21.1 20.9 20.7 20.6 20.4 20.3 20.1 20.1 20.0 20.0 20.0 20.0 20.0 20.0 20.0 20.0 20.0 20.0 20.0 20.0 20.0 20.0 20.0 20.0 20.0 20.0 20.0 20.0 20.0 20.0 20.0 20.0 20.0 20.0 20.1 20.1 20.1 20.1 20.1 20.1 20.1 20.1 20.1 20.1 20.1 20.1 20.1 20.1 20.1 20.1 20.1 20.1 20.1 20.0 20.0 20.0 20.0 20.1 20.0 20.0 20.1 20.1 20.2 20.2 20.2 20.2 20.2 20.2 20.2 20.2 20.2 20.1 20.1 20.1 20.1 20.1 20.1 20.1 20.1 20.1 20.1 20.1 20.1 20.1 20.1 20.0 20.2 20.2 20.3 20.3 20.3 20.3 20.3 20.3 20.3 20.3 20.3 20.2 20.2 20.2 20.2 20.2 20.2 20.2 20.2 20.2 20.2 20.2 20.2 20.1 20.0 20.0 20.3 20.3 20.4 20.4 20.4 20.4 20.4 20.4 20.4 20.4 20.4 20.3 20.3 20.3 20.3 20.3 20.3 20.3 20.3 20.3 20.3 20.3 20.2 20.1 20.0 20.0 20.4 20.4 20.5 20.5 20.5 20.5 20.5 20.5 20.5 20.5 20.5 20.4 20.4 20.4 20.4 20.4 20.4 20.4 20.4 20.4 20.4 20.3 20.2 20.1 20.0 20.0 20.5 20.5 20.6 20.6 20.7 20.6 20.6 20.7 20.7 20.7 20.6 20.5 20.5 20.5 20.5 20.5 20.5 20.5 20.5 20.5 20.4 20.3 20.2 20.1 20.1 20.0 20.6 20.7 20.7 20.8 20.8 20.8 20.8 20.9 20.9 20.8 20.7 20.7 20.7 20.6 20.6 20.6 20.6 20.6 20.6 20.5 20.4 20.3 20.2 20.1 20.1 20.0 20.7 20.8 20.9 21.0 21.0 21.0 21.1 21.1 21.1 21.0 20.9 20.9 20.8 20.8 20.8 20.8 20.8 20.7 20.6 20.5 20.4 20.3 20.2 20.1 20.1 20.0 20.9 21.0 21.1 21.2 21.2 21.2 21.3 21.3 21.3 21.2 21.1 21.1 21.0 21.0 20.9 20.9 20.9 20.8 20.6 20.5 20.4 20.3 20.2 20.1 20.1 20.0 21.0 21.1 21.3 21.4 21.5 21.5 21.6 21.6 21.5 21.4 21.3 21.3 21.2 21.2 21.1 21.1 21.0 20.8 20.6 20.5 20.4 20.3 20.2 20.1 20.1 20.0 21.2 21.4 21.5 21.6 21.8 21.8 21.9 21.9 21.9 21.7 21.6 21.5 21.5 21.4 21.3 21.2 21.0 20.8 20.7 20.6 20.5 20.3 20.2 20.2 20.1 20.0 21.5 21.6 21.7 21.9 22.1 22.2 22.4 22.4 22.2 22.0 21.9 21.8 21.8 21.7 21.5 21.3 21.0 20.9 20.8 20.6 20.5 20.4 20.3 20.2 20.1 20.0 21.8 21.9 22.1 22.3 22.5 22.7 22.9 22.9 22.7 22.4 22.3 22.2 22.1 21.9 21.6 21.4 21.1 21.0 20.8 20.7 20.5 20.4 20.3 20.2 20.1 20.0 22.1 22.3 22.5 22.8 23.0 23.3 23.5 23.5 23.2 23.0 22.8 22.7 22.4 22.1 21.7 21.5 21.3 21.1 20.9 20.7 20.6 20.4 20.3 20.2 20.1 20.0 22.5 22.8 23.1 23.4 23.7 24.1 24.4 24.4 24.0 23.7 23.4 23.0 22.6 22.2 21.9 21.6 21.4 21.2 21.0 20.8 20.6 20.5 20.3 20.2 20.1 20.1 23.0 23.7 24.7 25.1 25.4 26.5 27.1 26.3 25.3 24.6 24.0 23.5 22.9 22.5 22.1 21.8 21.5 21.2 21.0 20.8 20.7 20.5 20.4 20.2 20.1 20.1 23.8 25.7 29.1 30.4 28.2 29.5 31.9 29.6 26.8 25.5 24.7 23.9 23.3 22.7 22.2 21.9 21.6 21.3 21.1 20.9 20.7 20.5 20.4 20.3 20.1 20.1 26.7 34.3 46.8 54.7 43.7 37.5 42.6 37.5 31.4 28.2 25.5 24.4 23.7 23.0 22.5 22.1 21.8 21.5 21.2 21.0 20.8 20.6 20.5 20.3 20.1 20.1 32.2 55.9 96.0 133.4 107.8 80.8 93.2 78.2 54.3 37.1 27.4 25.2 24.2 23.5 22.9 22.4 22.0 21.7 21.4 21.2 20.9 20.7 20.5 20.3 20.2 20.1 34.5 68.7 148.4 244.8 222.4 221.3 285.4 239.8 129.1 47.7 29.1 26.2 25.0 24.0 23.4 22.8 22.3 21.8 21.5 21.2 20.9 20.7 20.5 20.3 20.2 20.1 33.6 67.0 178.0 317.4 303.0 335.2 438.3 368.8 187.0 53.5 30.2 27.3 25.8 24.6 23.7 23.1 22.4 21.9 21.5 21.2 20.9 20.7 20.5 20.3 20.2 20.1 34.3 71.6 177.3 295.8 281.1 277.3 333.4 266.6 131.5 48.1 30.8 27.7 26.1 24.7 23.7 23.0 22.4 22.0 21.6 21.2 20.9 20.7 20.5 20.3 20.2 20.1 31.7 61.0 122.2 186.0 183.8 165.5 166.8 121.8 66.5 37.9 29.0 26.7 25.3 24.2 23.4 22.8 22.3 21.9 21.6 21.2 21.0 20.7 20.5 20.3 20.2 20.1 26.8 38.0 59.4 83.8 89.0 86.3 78.9 62.1 46.6 31.4 26.8 25.4 24.3 23.5 22.9 22.4 22.1 21.7 21.4 21.2 20.9 20.7 20.5 20.3 20.2 20.1 23.9 28.6 34.2 40.4 42.5 41.7 40.9 36.5 30.9 27.1 25.6 24.5 23.7 23.1 22.6 22.2 21.8 21.5 21.3 21.0 20.8 20.6 20.5 20.3 20.2 20.1 20.0 20.0 20.0 20.0 20.0 20.0 20.0 20.0 20.0 20.0 20.0 20.0 20.0 20.0 20.0 20.0 20.0 20.0 20.0 20.0 20.0 20.0 20.0 20.0 20.0 20.0 20.1 20.1 20.1 20.1 20.1 20.1 20.1 20.1 20.1 20.1 20.1 20.1 20.1 20.1 20.1 20.1 20.1 20.1 20.1 20.1 20.1 20.1 20.1 20.1 20.1 20.0 20.1 20.2 20.2 20.2 20.2 20.2 20.2 20.2 20.2 20.2 20.2 20.2 20.2 20.1 20.1 20.1 20.1 20.1 20.1 20.1 20.1 20.1 20.1 20.1 20.1 20.0 20.2 20.3 20.3 20.3 20.3 20.3 20.3 20.3 20.3 20.3 20.3 20.3 20.2 20.2 20.2 20.2 20.2 20.2 20.2 20.2 20.2 20.2 20.2 20.1 20.1 20.0 20.3 20.4 20.4 20.4 20.4 20.4 20.4 20.4 20.4 20.4 20.4 20.4 20.3 20.3 20.3 20.3 20.3 20.3 20.3 20.3 20.3 20.3 20.2 20.1 20.1 20.0 20.4 20.5 20.5 20.5 20.5 20.5 20.5 20.6 20.6 20.6 20.5 20.5 20.4 20.4 20.4 20.4 20.4 20.4 20.4 20.4 20.4 20.3 20.2 20.1 20.1 20.0 20.5 20.6 20.6 20.7 20.7 20.7 20.7 20.7 20.8 20.7 20.6 20.6 20.6 20.6 20.6 20.6 20.6 20.5 20.5 20.5 20.4 20.3 20.2 20.1 20.1 20.0 20.7 20.7 20.8 20.8 20.9 20.8 20.9 20.9 21.0 20.9 20.8 20.8 20.8 20.7 20.7 20.7 20.7 20.6 20.6 20.5 20.4 20.3 20.2 20.1 20.1 20.0 20.8 20.9 20.9 21.0 21.0 21.0 21.1 21.2 21.2 21.1 21.0 21.0 20.9 20.9 20.9 20.8 20.8 20.7 20.7 20.6 20.4 20.3 20.2 20.2 20.1 20.0 20.9 21.0 21.1 21.2 21.2 21.3 21.3 21.4 21.4 21.3 21.2 21.2 21.1 21.1 21.0 21.0 20.9 20.8 20.7 20.6 20.5 20.4 20.3 20.2 20.1 20.0 21.1 21.2 21.3 21.4 21.5 21.5 21.6 21.7 21.6 21.6 21.5 21.4 21.3 21.3 21.2 21.1 21.0 20.9 20.8 20.6 20.5 20.4 20.3 20.2 20.1 20.0 21.3 21.4 21.5 21.7 21.7 21.8 21.9 22.0 22.0 21.8 21.7 21.6 21.6 21.5 21.4 21.2 21.1 20.9 20.8 20.7 20.6 20.4 20.3 20.2 20.1 20.0 21.6 21.7 21.8 21.9 22.0 22.1 22.3 22.4 22.3 22.2 22.0 21.9 21.8 21.7 21.5 21.3 21.2 21.0 20.9 20.8 20.6 20.5 20.3 20.2 20.1 20.1 21.8 22.0 22.1 22.3 22.4 22.5 22.8 22.9 22.8 22.5 22.4 22.3 22.1 21.9 21.7 21.5 21.3 21.1 21.0 20.8 20.6 20.5 20.4 20.2 20.1 20.1 22.2 22.4 22.6 22.7 22.9 23.1 23.3 23.5 23.3 23.1 22.8 22.6 22.4 22.1 21.9 21.6 21.4 21.2 21.0 20.8 20.7 20.5 20.4 20.2 20.1 20.1 22.6 23.0 23.3 23.4 23.5 23.7 24.1 24.2 24.0 23.7 23.4 23.0 22.7 22.3 22.0 21.8 21.5 21.3 21.1 20.9 20.7 20.5 20.4 20.2 20.1 20.1 23.2 24.1 24.9 25.1 24.9 25.4 26.0 25.8 25.0 24.5 24.0 23.5 23.0 22.6 22.2 21.9 21.6 21.4 21.1 20.9 20.7 20.6 20.4 20.3 20.1 20.1 24.4 27.0 29.2 28.1 25.7 27.0 29.0 28.1 26.5 25.4 24.6 23.9 23.4 22.9 22.4 22.0 21.7 21.5 21.2 21.0 20.8 20.6 20.5 20.3 20.1 20.1 28.6 37.3 46.4 43.8 31.6 30.0 34.3 33.0 32.1 29.1 25.4 24.5 23.7 23.1 22.7 22.3 21.9 21.7 21.4 21.1 20.9 20.7 20.5 20.3 20.2 20.1 36.3 61.5 96.0 99.1 60.9 52.7 66.2 67.2 60.7 40.3 27.3 25.2 24.3 23.6 23.0 22.6 22.2 21.8 21.5 21.3 21.0 20.8 20.6 20.4 20.2 20.1 44.3 98.4 182.9 191.5 111.0 126.6 192.2 190.7 122.7 47.4 29.1 26.2 25.0 24.1 23.4 22.9 22.4 22.0 21.6 21.3 21.0 20.8 20.5 20.4 20.2 20.1 54.2 130.1 256.0 261.5 159.2 217.5 328.3 305.6 165.2 48.9 31.8 27.3 25.8 24.6 23.7 23.1 22.5 22.0 21.6 21.3 21.0 20.7 20.5 20.3 20.2 20.1 64.4 150.9 267.7 251.9 164.7 223.6 302.1 258.3 136.2 51.7 35.4 27.8 25.9 24.8 23.8 23.1 22.5 22.0 21.6 21.3 21.0 20.7 20.5 20.3 20.2 20.1 63.5 134.8 206.5 192.3 139.2 159.8 184.6 153.0 96.1 49.2 33.1 26.9 25.3 24.4 23.5 22.9 22.4 22.0 21.6 21.3 21.0 20.8 20.5 20.3 20.2 20.1 44.0 79.5 117.7 123.2 97.0 89.9 94.7 86.2 64.8 37.4 27.8 25.5 24.4 23.7 23.1 22.6 22.2 21.9 21.6 21.3 21.0 20.8 20.6 20.4 20.2 20.1 26.1 40.1 58.6 60.7 48.3 42.5 45.5 43.2 34.1 27.4 25.7 24.7 23.9 23.3 22.7 22.3 22.0 21.7 21.4 21.1 20.9 20.7 20.5 20.3 20.2 20.1 20.0 20.0 20.0 20.0 20.0 20.0 20.0 20.0 20.1 20.1 20.1 20.0 20.0 20.0 20.0 20.0 20.0 20.0 20.0 20.0 20.0 20.0 20.0 20.0 20.0 20.0 20.1 20.1 20.1 20.1 20.1 20.1 20.1 20.1 20.1 20.1 20.1 20.1 20.1 20.1 20.1 20.1 20.1 20.1 20.1 20.1 20.1 20.1 20.1 20.1 20.1 20.0 20.2 20.2 20.2 20.2 20.2 20.2 20.2 20.2 20.2 20.2 20.2 20.2 20.2 20.2 20.2 20.2 20.2 20.2 20.2 20.1 20.2 20.2 20.2 20.2 20.1 20.0 20.2 20.3 20.3 20.3 20.3 20.3 20.3 20.3 20.3 20.3 20.3 20.3 20.3 20.3 20.3 20.3 20.3 20.3 20.3 20.3 20.3 20.3 20.2 20.2 20.1 20.0 20.3 20.4 20.4 20.4 20.4 20.4 20.4 20.4 20.5 20.5 20.4 20.4 20.4 20.4 20.4 20.4 20.4 20.4 20.4 20.4 20.4 20.3 20.3 20.2 20.1 20.0 20.4 20.5 20.5 20.5 20.5 20.5 20.5 20.6 20.6 20.6 20.5 20.5 20.5 20.5 20.5 20.5 20.5 20.5 20.5 20.5 20.4 20.4 20.3 20.2 20.1 20.0 20.6 20.6 20.7 20.7 20.7 20.7 20.7 20.7 20.8 20.8 20.7 20.7 20.7 20.7 20.7 20.7 20.6 20.6 20.6 20.5 20.5 20.4 20.3 20.2 20.1 20.0 20.7 20.7 20.8 20.9 20.9 20.8 20.9 20.9 21.0 20.9 20.9 20.9 20.9 20.8 20.8 20.8 20.8 20.7 20.7 20.6 20.5 20.4 20.3 20.2 20.1 20.0 20.8 20.9 21.0 21.0 21.0 21.0 21.1 21.1 21.2 21.2 21.1 21.1 21.0 21.0 21.0 20.9 20.9 20.8 20.7 20.6 20.5 20.4 20.3 20.2 20.1 20.0 21.0 21.0 21.1 21.2 21.2 21.3 21.3 21.4 21.4 21.4 21.3 21.3 21.3 21.2 21.1 21.1 21.0 20.9 20.8 20.7 20.6 20.4 20.3 20.2 20.1 20.0 21.2 21.2 21.3 21.4 21.5 21.5 21.6 21.7 21.7 21.7 21.6 21.5 21.5 21.4 21.3 21.2 21.1 21.0 20.9 20.7 20.6 20.5 20.3 20.2 20.1 20.0 21.4 21.4 21.5 21.6 21.7 21.7 21.9 22.0 22.0 22.0 21.9 21.8 21.7 21.5 21.4 21.3 21.2 21.1 20.9 20.8 20.6 20.5 20.3 20.2 20.1 20.1 21.6 21.7 21.8 21.9 22.0 22.1 22.3 22.4 22.4 22.3 22.1 22.0 21.9 21.7 21.6 21.4 21.3 21.2 21.0 20.8 20.7 20.5 20.4 20.2 20.1 20.1 21.9 22.0 22.1 22.2 22.3 22.5 22.8 22.9 22.8 22.6 22.5 22.3 22.1 21.9 21.8 21.6 21.4 21.3 21.1 20.9 20.7 20.5 20.4 20.2 20.1 20.1 22.2 22.4 22.6 22.6 22.8 23.0 23.3 23.4 23.3 23.1 22.9 22.6 22.4 22.2 21.9 21.7 21.5 21.3 21.1 20.9 20.7 20.5 20.4 20.2 20.1 20.1 22.7 23.1 23.4 23.4 23.3 23.6 23.9 24.1 23.9 23.7 23.4 23.0 22.7 22.4 22.1 21.9 21.7 21.4 21.2 20.9 20.7 20.6 20.4 20.3 20.1 20.1 23.3 24.2 25.1 25.1 24.7 24.9 25.3 25.2 24.8 24.3 23.9 23.4 23.0 22.7 22.4 22.1 21.8 21.5 21.2 21.0 20.8 20.6 20.4 20.3 20.1 20.1 24.8 27.3 27.6 25.7 25.7 26.7 27.0 26.8 25.9 25.0 24.4 23.8 23.3 22.9 22.6 22.2 21.9 21.6 21.3 21.1 20.9 20.7 20.5 20.3 20.1 20.1 28.6 35.6 37.4 29.7 27.3 29.7 29.3 29.6 30.0 27.8 25.1 24.4 23.7 23.2 22.8 22.4 22.1 21.7 21.4 21.2 21.0 20.7 20.5 20.3 20.2 20.1 36.2 55.3 67.6 49.2 40.2 47.7 44.5 49.7 49.0 34.3 26.5 25.2 24.3 23.7 23.1 22.7 22.3 21.9 21.6 21.3 21.0 20.8 20.6 20.4 20.2 20.1 65.2 117.7 136.4 83.9 67.3 89.5 94.0 113.8 87.8 39.3 28.5 26.1 25.0 24.1 23.4 22.9 22.4 22.0 21.7 21.3 21.0 20.8 20.6 20.4 20.2 20.1 112.1 195.4 206.1 128.1 134.0 183.6 197.3 197.0 118.0 47.5 34.3 27.2 25.6 24.5 23.6 23.0 22.5 22.1 21.7 21.3 21.0 20.7 20.5 20.3 20.2 20.1 137.2 230.4 222.5 146.3 185.3 249.8 251.8 215.4 125.7 66.7 45.1 28.5 25.6 24.7 23.8 23.1 22.5 22.0 21.6 21.3 21.0 20.7 20.5 20.3 20.2 20.1 113.7 192.8 206.1 157.9 155.2 179.3 174.2 150.4 106.2 65.7 42.5 27.6 25.2 24.4 23.6 23.0 22.4 22.0 21.6 21.3 21.0 20.8 20.5 20.3 20.2 20.1 59.9 103.8 151.0 141.0 95.2 79.5 80.8 77.9 62.6 40.6 30.0 25.5 24.4 23.8 23.2 22.7 22.3 21.9 21.6 21.3 21.0 20.8 20.6 20.4 20.2 20.1 27.4 44.4 72.2 71.7 48.3 39.5 41.7 40.8 33.3 27.4 25.7 24.7 23.9 23.4 22.9 22.5 22.1 21.8 21.4 21.2 20.9 20.7 20.5 20.3 20.2 20.1 20.0 20.0 20.0 20.0 20.0 20.0 20.0 20.0 20.1 20.1 20.1 20.0 20.0 20.0 20.0 20.0 20.0 20.0 20.0 20.0 20.0 20.0 20.0 20.0 20.1 20.1 20.1 20.1 20.1 20.1 20.1 20.1 20.1 20.1 20.1 20.1 20.1 20.1 20.1 20.1 20.1 20.1 20.1 20.1 20.1 20.1 20.1 20.1 20.1 20.1 20.1 20.1 20.2 20.2 20.2 20.2 20.2 20.2 20.2 20.2 20.2 20.2 20.2 20.2 20.2 20.2 20.2 20.2 20.2 20.2 20.2 20.2 20.2 20.2 20.2 20.2 20.1 20.1 20.2 20.3 20.3 20.3 20.3 20.3 20.3 20.3 20.3 20.3 20.3 20.3 20.3 20.3 20.3 20.3 20.3 20.3 20.3 20.3 20.3 20.3 20.3 20.2 20.1 20.0 20.3 20.4 20.4 20.4 20.4 20.4 20.4 20.4 20.5 20.5 20.5 20.5 20.4 20.4 20.4 20.4 20.4 20.4 20.4 20.4 20.4 20.4 20.3 20.2 20.1 20.0 20.5 20.5 20.5 20.5 20.5 20.5 20.5 20.6 20.6 20.6 20.6 20.6 20.6 20.6 20.6 20.6 20.6 20.6 20.6 20.5 20.5 20.4 20.3 20.2 20.1 20.0 20.6 20.6 20.7 20.7 20.7 20.7 20.7 20.7 20.8 20.8 20.7 20.8 20.8 20.8 20.8 20.8 20.7 20.7 20.7 20.6 20.5 20.4 20.3 20.2 20.1 20.0 20.7 20.7 20.8 20.8 20.9 20.8 20.9 20.9 21.0 21.0 21.0 21.0 21.0 21.0 20.9 20.9 20.9 20.8 20.8 20.7 20.6 20.4 20.3 20.2 20.1 20.0 20.8 20.9 20.9 21.0 21.0 21.0 21.1 21.2 21.2 21.2 21.2 21.2 21.2 21.2 21.1 21.1 21.0 20.9 20.8 20.7 20.6 20.4 20.3 20.2 20.1 20.0 21.0 21.0 21.1 21.2 21.2 21.3 21.4 21.4 21.5 21.5 21.5 21.5 21.4 21.3 21.3 21.2 21.1 21.0 20.9 20.8 20.6 20.5 20.3 20.2 20.1 20.0 21.2 21.3 21.3 21.4 21.5 21.5 21.6 21.7 21.8 21.8 21.8 21.7 21.6 21.5 21.4 21.3 21.2 21.1 21.0 20.8 20.7 20.5 20.3 20.2 20.1 20.0 21.5 21.6 21.6 21.7 21.7 21.8 21.9 22.1 22.1 22.1 22.0 21.9 21.8 21.7 21.6 21.4 21.3 21.2 21.1 20.9 20.7 20.5 20.3 20.2 20.1 20.1 21.8 21.8 21.9 22.0 22.1 22.1 22.3 22.5 22.5 22.5 22.3 22.1 22.0 21.8 21.7 21.6 21.4 21.3 21.1 20.9 20.7 20.5 20.4 20.2 20.1 20.1 22.0 22.1 22.2 22.3 22.4 22.5 22.8 22.9 22.9 22.8 22.6 22.4 22.2 22.0 21.9 21.7 21.5 21.4 21.2 21.0 20.7 20.5 20.4 20.2 20.1 20.1 22.3 22.5 22.6 22.7 22.8 23.0 23.3 23.4 23.4 23.2 22.9 22.7 22.5 22.3 22.0 21.9 21.7 21.5 21.2 21.0 20.7 20.5 20.4 20.2 20.1 20.1 22.7 23.0 23.2 23.3 23.3 23.6 23.9 24.0 23.9 23.7 23.4 23.0 22.8 22.5 22.2 22.0 21.8 21.5 21.3 21.0 20.8 20.6 20.4 20.2 20.1 20.1 23.3 24.0 24.5 24.5 24.5 24.6 24.9 24.9 24.5 24.2 23.8 23.4 23.1 22.8 22.5 22.2 21.9 21.6 21.3 21.1 20.8 20.6 20.4 20.3 20.1 20.1 24.9 26.6 25.9 25.3 26.0 25.8 26.1 26.1 25.5 24.8 24.3 23.9 23.4 23.1 22.7 22.4 22.1 21.8 21.4 21.1 20.9 20.7 20.5 20.3 20.1 20.1 27.3 32.2 29.5 26.4 28.1 27.1 27.1 27.8 27.6 26.2 25.0 24.4 23.9 23.4 23.0 22.6 22.2 21.8 21.5 21.2 21.0 20.7 20.5 20.3 20.2 20.1 33.6 45.2 40.1 33.1 37.4 34.1 32.0 35.3 34.5 28.6 26.1 25.2 24.5 23.9 23.3 22.8 22.4 22.0 21.6 21.3 21.0 20.8 20.6 20.3 20.2 20.1 69.1 92.6 66.4 43.7 54.4 53.1 52.6 58.2 49.0 32.1 28.2 26.1 25.2 24.3 23.6 23.0 22.5 22.0 21.7 21.3 21.0 20.8 20.5 20.3 20.2 20.1 135.1 167.7 113.4 93.9 125.4 126.5 123.4 105.4 72.2 47.2 35.0 27.2 25.7 24.6 23.8 23.1 22.6 22.1 21.7 21.3 21.0 20.7 20.5 20.3 20.1 20.1 179.3 213.5 148.7 145.5 192.3 186.3 176.6 146.2 106.6 80.2 51.2 29.0 25.6 24.7 23.9 23.2 22.6 22.1 21.7 21.3 21.0 20.7 20.5 20.3 20.1 20.1 143.2 170.7 163.1 161.3 155.4 131.0 119.2 109.4 94.3 75.6 49.0 28.1 25.1 24.4 23.7 23.1 22.5 22.0 21.7 21.3 21.0 20.8 20.5 20.3 20.2 20.1 65.9 82.4 129.9 129.7 80.8 58.1 51.6 50.0 46.7 39.4 31.1 25.5 24.5 24.0 23.4 22.8 22.3 21.9 21.6 21.3 21.0 20.8 20.5 20.3 20.2 20.1 28.6 37.6 61.2 60.4 38.8 34.6 35.2 33.4 29.5 26.9 25.6 24.8 24.2 23.6 23.1 22.6 22.2 21.8 21.5 21.2 20.9 20.7 20.5 20.3 20.2 20.1 20.0 20.0 20.0 20.0 20.0 20.0 20.0 20.0 20.0 20.1 20.0 20.0 20.0 20.0 20.0 20.0 20.0 20.0 20.0 20.0 20.0 20.1 20.1 20.1 20.1 20.1 20.1 20.1 20.1 20.1 20.1 20.1 20.1 20.1 20.1 20.1 20.1 20.1 20.1 20.1 20.1 20.1 20.1 20.1 20.1 20.1 20.1 20.1 20.1 20.1 20.1 20.1 20.2 20.2 20.2 20.2 20.2 20.2 20.2 20.2 20.2 20.2 20.2 20.2 20.2 20.2 20.2 20.2 20.2 20.2 20.2 20.2 20.2 20.2 20.2 20.2 20.1 20.1 20.2 20.3 20.3 20.3 20.3 20.3 20.3 20.3 20.3 20.3 20.4 20.4 20.4 20.3 20.3 20.3 20.3 20.3 20.3 20.3 20.4 20.4 20.3 20.2 20.1 20.0 20.4 20.4 20.4 20.4 20.4 20.4 20.4 20.5 20.5 20.5 20.5 20.6 20.6 20.5 20.5 20.5 20.5 20.5 20.5 20.5 20.5 20.5 20.4 20.2 20.1 20.0 20.5 20.5 20.5 20.6 20.6 20.6 20.6 20.6 20.6 20.7 20.7 20.8 20.8 20.7 20.7 20.7 20.7 20.7 20.6 20.6 20.6 20.5 20.3 20.2 20.1 20.0 20.6 20.6 20.7 20.7 20.7 20.7 20.8 20.8 20.8 20.8 20.9 21.0 21.0 20.9 20.9 20.9 20.9 20.8 20.8 20.7 20.6 20.5 20.3 20.2 20.1 20.0 20.7 20.7 20.8 20.9 20.9 20.9 20.9 21.0 21.0 21.0 21.1 21.2 21.2 21.2 21.1 21.1 21.0 21.0 20.9 20.8 20.6 20.5 20.3 20.2 20.1 20.0 20.8 20.9 21.0 21.0 21.1 21.1 21.2 21.2 21.3 21.4 21.4 21.5 21.4 21.3 21.3 21.2 21.1 21.1 21.0 20.8 20.7 20.5 20.4 20.2 20.1 20.0 21.0 21.1 21.1 21.2 21.3 21.4 21.6 21.6 21.7 21.7 21.7 21.7 21.6 21.5 21.4 21.4 21.3 21.2 21.0 20.9 20.7 20.6 20.4 20.2 20.1 20.1 21.3 21.3 21.4 21.5 21.5 21.7 21.9 22.0 22.0 22.1 22.0 21.9 21.8 21.7 21.6 21.5 21.4 21.2 21.1 21.0 20.8 20.6 20.4 20.2 20.1 20.1 21.6 21.6 21.7 21.8 22.0 22.1 22.2 22.3 22.4 22.4 22.3 22.1 22.0 21.9 21.7 21.6 21.5 21.3 21.2 21.0 20.8 20.6 20.4 20.2 20.1 20.1 21.9 21.9 22.0 22.2 22.3 22.4 22.5 22.7 22.7 22.7 22.5 22.3 22.2 22.0 21.9 21.7 21.6 21.4 21.3 21.1 20.8 20.6 20.4 20.2 20.1 20.1 22.2 22.2 22.3 22.5 22.6 22.7 22.9 23.1 23.1 23.0 22.8 22.5 22.4 22.2 22.0 21.9 21.7 21.5 21.3 21.1 20.8 20.6 20.4 20.2 20.1 20.1