<?xml version="1.0"?>
<VTKFile type="RectilinearGrid" version="1.0" byte_order="LittleEndian" header_type="UInt64">
<RectilinearGrid WholeExtent="25 50 0 25 0 15">
<Piece Extent="25 50 0 25 0 15">
<Coordinates>
<DataArray type="Float64" Name="Array X-Axis" format="ascii" RangeMin="15.0" RangeMax="30.0">
15.0 15.6 16.2 16.8 17.4 18.0 18.6 19.2 19.8 20.4 21.0 21.6 22.2 22.8 23.4 24.0 24.6 25.2 25.8 26.4 27.0 27.6 28.2 28.8 29.4 30.0 
</DataArray>
<DataArray type="Float64" Name="Array Y-Axis" format="ascii" RangeMin="0.0" RangeMax="15.0">
0.0 0.6 1.2 1.8 2.4 3.0 3.6 4.2 4.8 5.4 6.0 6.6 7.2 7.8 8.4 9.0 9.6 10.2 10.8 11.4 12.0 12.6 13.2 13.8 14.4 15.0 
</DataArray>
<DataArray type="Float64" Name="Array Z-Axis" format="ascii" RangeMin="0.0" RangeMax="9.0">
0.0 0.6 1.2 1.8 2.4 3.0 3.6 4.2 4.8 5.4 6.0 6.6 7.2 7.8 8.4 9.0 
</DataArray>
</Coordinates>
<PointData>
<DataArray Name="TEMPERATURE" NumberOfComponents="1" type="Float64" format="ascii">
20.1 20.1 20.1 20.1 20.1 20.1 20.1 20.1 20.1 20.1 20.1 20.1 20.1 20.1 20.0 20.0 20.0 20.0 20.0 20.0 20.0 20.0 20.0 20.0 20.0 20.0 20.1 20.1 20.1 20.1 20.1 20.1 20.2 20.2 20.2 20.2 20.1 20.1 20.1 20.1 20.1 20.1 20.1 20.1 20.1 20.1 20.1 20.1 20.1 20.0 20.0 20.0 20.2 20.2 20.2 20.2 20.2 20.2 20.3 20.3 20.3 20.3 20.2 20.2 20.2 20.2 20.2 20.2 20.1 20.1 20.1 20.1 20.1 20.1 20.1 20.1 20.0 20.0 20.2 20.2 20.3 20.3 20.4 20.4 20.4 20.4 20.4 20.4 20.3 20.3 20.3 20.2 20.2 20.2 20.2 20.2 20.2 20.2 20.2 20.2 20.1 20.1 20.1 20.0 20.3 20.3 20.4 20.4 20.5 20.5 20.5 20.5 20.5 20.5 20.4 20.4 20.3 20.3 20.3 20.3 20.3 20.3 20.3 20.3 20.3 20.2 20.2 20.1 20.1 20.0 20.4 20.4 20.5 20.5 20.6 20.6 20.6 20.6 20.6 20.6 20.5 20.5 20.5 20.5 20.4 20.4 20.4 20.4 20.4 20.4 20.3 20.3 20.2 20.1 20.1 20.0 20.5 20.5 20.6 20.6 20.7 20.8 20.8 20.8 20.8 20.7 20.7 20.6 20.6 20.6 20.5 20.5 20.5 20.5 20.5 20.4 20.4 20.3 20.2 20.1 20.1 20.0 20.6 20.7 20.7 20.8 20.9 20.9 21.0 21.0 21.0 20.9 20.8 20.7 20.7 20.7 20.7 20.6 20.6 20.6 20.5 20.5 20.4 20.3 20.2 20.2 20.1 20.0 20.7 20.8 20.9 20.9 21.0 21.1 21.2 21.2 21.2 21.1 21.0 20.9 20.9 20.8 20.8 20.8 20.7 20.7 20.6 20.5 20.4 20.3 20.2 20.2 20.1 20.1 20.9 20.9 21.0 21.1 21.2 21.2 21.3 21.4 21.4 21.4 21.3 21.1 21.0 21.0 20.9 20.9 20.9 20.8 20.6 20.5 20.4 20.4 20.3 20.2 20.1 20.1 21.0 21.1 21.2 21.3 21.4 21.5 21.5 21.6 21.6 21.6 21.5 21.3 21.2 21.1 21.1 21.1 21.0 20.8 20.7 20.6 20.5 20.4 20.3 20.2 20.1 20.1 21.2 21.3 21.4 21.6 21.7 21.8 21.8 21.9 21.9 21.9 21.7 21.5 21.4 21.4 21.3 21.2 21.1 20.9 20.7 20.6 20.5 20.4 20.3 20.2 20.1 20.1 21.4 21.5 21.7 21.8 22.0 22.2 22.2 22.2 22.2 22.1 21.9 21.7 21.6 21.6 21.5 21.3 21.1 20.9 20.8 20.7 20.6 20.5 20.3 20.2 20.1 20.1 21.6 21.8 22.0 22.2 22.4 22.7 22.7 22.7 22.6 22.4 22.3 22.1 21.9 21.8 21.6 21.4 21.2 21.0 20.9 20.7 20.6 20.5 20.4 20.3 20.1 20.1 21.9 22.0 22.3 22.5 22.9 23.2 23.4 23.3 23.1 22.9 22.7 22.5 22.3 22.0 21.7 21.5 21.3 21.1 20.9 20.8 20.7 20.5 20.4 20.3 20.1 20.1 22.2 22.4 22.6 23.0 23.4 23.8 24.2 24.1 23.8 23.4 23.2 22.9 22.5 22.2 21.9 21.6 21.4 21.2 21.0 20.9 20.7 20.6 20.5 20.3 20.2 20.1 22.5 22.8 23.2 23.6 24.1 24.8 25.3 25.2 24.7 24.2 23.7 23.2 22.8 22.3 22.0 21.7 21.5 21.4 21.2 21.0 20.9 20.7 20.5 20.3 20.2 20.1 23.0 23.3 23.8 24.3 24.8 25.7 26.5 26.4 25.8 24.9 24.1 23.6 23.0 22.5 22.2 22.0 21.8 21.6 21.4 21.2 20.9 20.7 20.5 20.3 20.2 20.1 23.4 23.8 24.5 25.4 26.3 27.0 27.8 28.1 27.5 26.2 24.9 23.9 23.3 22.9 22.6 22.3 22.0 21.7 21.4 21.2 20.9 20.7 20.5 20.4 20.2 20.1 24.0 24.6 25.5 27.1 29.7 32.5 33.9 34.7 32.7 28.2 25.8 24.5 24.0 23.6 23.1 22.5 22.1 21.8 21.4 21.2 21.0 20.9 20.6 20.4 20.2 20.1 25.1 26.1 29.4 36.4 38.8 36.9 38.9 40.0 35.8 29.2 26.5 25.3 24.7 24.0 23.3 22.7 22.2 21.8 21.5 21.3 21.1 20.9 20.7 20.4 20.2 20.1 26.2 27.8 31.9 42.5 50.4 20.0 20.0 38.5 34.5 29.2 27.1 25.9 24.9 24.0 23.3 22.7 22.3 21.9 21.5 21.2 21.0 20.8 20.6 20.4 20.3 20.2 26.3 28.0 30.3 37.7 43.9 20.0 20.0 34.5 32.0 28.7 27.3 25.8 24.5 23.7 23.1 22.6 22.1 21.8 21.5 21.2 20.9 20.8 20.6 20.4 20.2 20.2 25.5 26.8 28.7 32.4 33.9 34.2 34.9 30.9 28.5 27.0 26.0 24.9 23.9 23.2 22.7 22.2 21.9 21.6 21.4 21.1 20.9 20.7 20.5 20.4 20.2 20.1 24.6 25.4 26.7 28.1 29.4 31.6 32.1 29.2 26.5 25.4 24.6 23.9 23.3 22.8 22.3 22.0 21.7 21.4 21.2 21.0 20.8 20.7 20.5 20.3 20.2 20.1 23.1 24.5 25.3 26.2 27.0 27.8 28.2 27.0 25.4 24.5 23.9 23.3 22.9 22.5 22.1 21.8 21.5 21.3 21.1 20.9 20.7 20.6 20.4 20.3 20.2 20.1 20.0 20.1 20.1 20.1 20.1 20.1 20.1 20.1 20.1 20.1 20.1 20.1 20.1 20.0 20.0 20.0 20.0 20.0 20.0 20.0 20.0 20.0 20.0 20.0 20.0 20.0 20.1 20.1 20.1 20.1 20.1 20.1 20.1 20.1 20.1 20.1 20.1 20.1 20.1 20.1 20.1 20.1 20.1 20.1 20.1 20.1 20.1 20.1 20.0 20.0 20.0 20.0 20.1 20.2 20.2 20.2 20.2 20.2 20.3 20.2 20.3 20.2 20.2 20.2 20.2 20.2 20.2 20.1 20.1 20.1 20.1 20.1 20.1 20.1 20.1 20.1 20.0 20.0 20.2 20.2 20.3 20.3 20.3 20.4 20.4 20.4 20.4 20.4 20.3 20.3 20.2 20.2 20.2 20.2 20.2 20.2 20.2 20.2 20.2 20.2 20.1 20.1 20.0 20.0 20.3 20.3 20.4 20.4 20.5 20.5 20.5 20.5 20.5 20.5 20.4 20.4 20.3 20.3 20.3 20.3 20.3 20.3 20.3 20.2 20.2 20.2 20.2 20.1 20.1 20.0 20.4 20.4 20.4 20.5 20.6 20.6 20.6 20.6 20.6 20.6 20.5 20.5 20.4 20.4 20.4 20.4 20.4 20.4 20.3 20.3 20.3 20.2 20.2 20.1 20.1 20.0 20.5 20.5 20.6 20.6 20.7 20.8 20.8 20.8 20.8 20.7 20.7 20.6 20.6 20.5 20.5 20.5 20.5 20.4 20.4 20.4 20.3 20.3 20.2 20.1 20.1 20.0 20.6 20.6 20.7 20.8 20.9 20.9 21.0 21.0 21.0 20.9 20.8 20.7 20.7 20.7 20.6 20.6 20.6 20.6 20.5 20.5 20.4 20.3 20.2 20.1 20.1 20.0 20.7 20.8 20.8 20.9 21.0 21.1 21.2 21.2 21.2 21.1 21.0 20.9 20.8 20.8 20.8 20.7 20.7 20.7 20.6 20.5 20.4 20.3 20.2 20.2 20.1 20.0 20.9 20.9 21.0 21.1 21.2 21.3 21.3 21.4 21.4 21.3 21.2 21.1 21.0 20.9 20.9 20.9 20.9 20.8 20.6 20.5 20.4 20.3 20.3 20.2 20.1 20.1 21.0 21.1 21.2 21.3 21.4 21.5 21.6 21.6 21.6 21.6 21.4 21.3 21.2 21.1 21.1 21.1 21.0 20.8 20.7 20.5 20.5 20.4 20.3 20.2 20.1 20.1 21.2 21.3 21.4 21.6 21.7 21.8 21.9 22.0 21.9 21.8 21.6 21.5 21.4 21.4 21.3 21.2 21.0 20.9 20.7 20.6 20.5 20.4 20.3 20.2 20.1 20.1 21.4 21.5 21.7 21.8 22.0 22.2 22.4 22.4 22.3 22.1 21.9 21.8 21.7 21.6 21.5 21.3 21.1 20.9 20.8 20.7 20.5 20.4 20.3 20.2 20.1 20.1 21.6 21.8 22.0 22.2 22.5 22.7 22.9 22.8 22.6 22.5 22.3 22.1 22.0 21.8 21.6 21.4 21.1 21.0 20.9 20.7 20.6 20.5 20.3 20.2 20.1 20.1 21.9 22.1 22.3 22.6 23.0 23.3 23.5 23.5 23.2 22.9 22.8 22.5 22.3 22.0 21.7 21.5 21.3 21.1 20.9 20.8 20.6 20.5 20.4 20.2 20.1 20.1 22.2 22.5 22.8 23.1 23.6 24.2 24.5 24.4 23.9 23.5 23.2 22.9 22.6 22.2 21.9 21.6 21.4 21.2 21.0 20.8 20.7 20.6 20.4 20.3 20.1 20.1 22.6 22.9 23.3 23.8 24.3 25.2 26.0 25.7 24.8 24.2 23.7 23.3 22.8 22.4 22.0 21.8 21.5 21.3 21.1 21.0 20.8 20.7 20.5 20.3 20.2 20.1 23.0 23.4 23.9 24.7 25.3 26.3 27.7 27.4 26.0 25.0 24.3 23.7 23.1 22.6 22.3 22.0 21.8 21.6 21.3 21.1 20.9 20.6 20.5 20.3 20.2 20.1 23.5 24.0 24.7 26.5 27.8 28.5 29.8 29.7 28.0 26.2 25.0 24.1 23.5 23.0 22.6 22.3 22.0 21.7 21.4 21.1 20.9 20.7 20.5 20.4 20.2 20.1 24.2 24.9 26.1 32.1 38.8 40.3 38.7 37.1 33.6 28.4 26.1 24.8 24.1 23.7 23.1 22.6 22.2 21.8 21.4 21.2 21.0 20.8 20.6 20.4 20.2 20.1 25.3 26.3 30.2 50.3 112.0 160.1 116.3 62.1 39.2 30.2 26.9 25.6 24.8 24.2 23.4 22.8 22.3 21.9 21.5 21.2 21.0 20.8 20.6 20.4 20.2 20.1 26.4 27.9 32.5 57.3 177.4 377.4 268.4 82.7 39.4 31.0 27.7 26.2 25.1 24.2 23.4 22.8 22.3 21.9 21.5 21.2 21.0 20.8 20.6 20.4 20.2 20.1 27.0 28.5 31.1 44.7 120.8 307.2 259.1 77.7 35.8 29.9 27.6 26.0 24.8 23.9 23.2 22.7 22.2 21.8 21.5 21.2 20.9 20.7 20.5 20.4 20.2 20.1 26.7 28.7 30.9 36.2 57.1 109.1 108.9 53.7 31.3 27.5 26.2 25.0 24.1 23.3 22.8 22.3 21.9 21.6 21.4 21.1 20.9 20.7 20.5 20.4 20.2 20.1 25.4 27.1 28.7 30.4 32.8 37.6 37.9 32.3 27.9 25.8 24.9 24.1 23.5 22.9 22.4 22.0 21.7 21.5 21.2 21.0 20.8 20.6 20.5 20.3 20.2 20.1 23.3 24.8 25.7 26.7 27.6 29.2 29.5 27.8 25.9 24.9 24.2 23.6 23.0 22.6 22.2 21.8 21.5 21.3 21.1 20.9 20.7 20.5 20.4 20.3 20.2 20.1 20.0 20.0 20.1 20.0 20.1 20.1 20.1 20.1 20.1 20.1 20.1 20.1 20.0 20.0 20.0 20.0 20.0 20.0 20.0 20.0 20.0 20.0 20.0 20.0 20.0 20.0 20.1 20.1 20.1 20.1 20.1 20.1 20.1 20.1 20.1 20.1 20.1 20.1 20.1 20.1 20.1 20.1 20.1 20.1 20.1 20.1 20.0 20.0 20.0 20.0 20.0 20.0 20.1 20.2 20.2 20.2 20.2 20.2 20.2 20.2 20.2 20.2 20.2 20.2 20.2 20.1 20.1 20.1 20.1 20.1 20.1 20.1 20.1 20.1 20.1 20.1 20.0 20.0 20.2 20.2 20.3 20.3 20.3 20.3 20.3 20.3 20.3 20.3 20.3 20.3 20.2 20.2 20.2 20.2 20.2 20.2 20.2 20.1 20.1 20.1 20.1 20.1 20.0 20.0 20.3 20.3 20.3 20.4 20.5 20.5 20.5 20.5 20.5 20.4 20.4 20.3 20.3 20.3 20.3 20.3 20.3 20.2 20.2 20.2 20.2 20.2 20.1 20.1 20.0 20.0 20.4 20.4 20.4 20.5 20.6 20.6 20.6 20.6 20.6 20.6 20.5 20.5 20.4 20.4 20.4 20.4 20.3 20.3 20.3 20.3 20.3 20.2 20.1 20.1 20.0 20.0 20.5 20.5 20.6 20.6 20.7 20.8 20.8 20.8 20.8 20.7 20.6 20.6 20.5 20.5 20.5 20.4 20.4 20.4 20.4 20.4 20.3 20.2 20.1 20.1 20.1 20.0 20.6 20.6 20.7 20.8 20.8 20.9 21.0 21.0 20.9 20.9 20.8 20.7 20.6 20.6 20.6 20.5 20.5 20.5 20.5 20.4 20.3 20.2 20.2 20.1 20.1 20.0 20.7 20.8 20.8 20.9 21.0 21.1 21.2 21.2 21.2 21.0 20.9 20.8 20.8 20.7 20.7 20.7 20.7 20.6 20.6 20.4 20.3 20.2 20.2 20.1 20.1 20.0 20.8 20.9 21.0 21.1 21.2 21.3 21.4 21.5 21.4 21.3 21.1 21.0 20.9 20.9 20.9 20.9 20.8 20.7 20.6 20.5 20.4 20.3 20.2 20.1 20.1 20.0 21.0 21.1 21.2 21.3 21.5 21.6 21.7 21.8 21.7 21.5 21.3 21.2 21.1 21.1 21.1 21.0 20.9 20.8 20.6 20.5 20.4 20.3 20.2 20.2 20.1 20.0 21.2 21.3 21.4 21.6 21.8 21.9 22.1 22.1 22.0 21.8 21.6 21.4 21.4 21.3 21.3 21.2 21.0 20.8 20.7 20.5 20.4 20.3 20.3 20.2 20.1 20.1 21.4 21.5 21.7 21.9 22.2 22.4 22.5 22.5 22.3 22.1 21.9 21.8 21.7 21.6 21.5 21.2 21.0 20.9 20.7 20.6 20.5 20.4 20.3 20.2 20.1 20.1 21.6 21.8 22.0 22.3 22.6 22.8 23.1 23.1 22.8 22.5 22.3 22.2 22.1 21.8 21.6 21.3 21.1 20.9 20.8 20.7 20.5 20.4 20.3 20.2 20.1 20.1 21.9 22.2 22.4 22.8 23.2 23.6 23.9 23.9 23.4 23.0 22.8 22.6 22.4 22.0 21.7 21.4 21.2 21.0 20.9 20.7 20.6 20.4 20.3 20.2 20.1 20.1 22.3 22.6 23.0 23.4 24.0 24.6 25.2 25.0 24.1 23.6 23.3 23.0 22.6 22.2 21.8 21.6 21.4 21.1 20.9 20.8 20.6 20.5 20.4 20.2 20.1 20.1 22.7 23.1 23.6 24.2 25.1 26.5 28.7 27.7 25.1 24.4 23.9 23.5 22.9 22.5 22.1 21.8 21.5 21.3 21.1 20.9 20.7 20.6 20.4 20.3 20.1 20.1 23.2 23.8 24.5 26.4 27.7 30.5 36.3 34.2 27.4 25.3 24.6 23.9 23.3 22.7 22.3 22.0 21.7 21.5 21.2 21.0 20.8 20.6 20.4 20.3 20.2 20.1 23.8 24.5 25.7 31.3 35.4 37.2 42.4 43.3 35.0 27.3 25.4 24.4 23.7 23.1 22.7 22.3 21.9 21.6 21.3 21.0 20.8 20.6 20.4 20.3 20.2 20.1 24.6 25.7 30.5 54.0 76.0 70.3 57.2 55.1 46.9 31.8 26.8 25.3 24.4 23.8 23.2 22.7 22.2 21.8 21.4 21.1 20.9 20.7 20.5 20.4 20.2 20.1 25.8 28.2 37.4 96.1 207.5 249.8 191.2 123.7 68.9 35.2 28.2 26.2 25.2 24.5 23.7 23.0 22.5 22.0 21.6 21.2 20.9 20.7 20.6 20.4 20.2 20.1 26.9 31.1 39.9 104.9 283.2 405.9 341.4 199.4 83.2 35.2 29.0 27.0 25.7 24.7 23.9 23.1 22.5 22.0 21.6 21.2 21.0 20.7 20.6 20.3 20.2 20.1 27.6 31.3 38.7 84.7 214.3 338.0 318.3 185.3 73.1 34.1 28.6 26.8 25.4 24.3 23.5 22.9 22.3 21.9 21.6 21.2 21.0 20.7 20.5 20.3 20.1 20.1 27.5 30.7 36.6 67.2 123.0 170.8 165.7 103.3 49.0 30.5 26.8 25.6 24.5 23.6 23.0 22.5 22.1 21.7 21.5 21.2 20.9 20.7 20.5 20.3 20.2 20.1 26.1 28.7 31.4 43.6 58.2 57.5 50.0 40.2 30.4 26.8 25.5 24.6 23.8 23.1 22.6 22.2 21.9 21.6 21.3 21.1 20.8 20.6 20.5 20.3 20.2 20.1 23.6 25.4 26.4 28.7 32.1 33.2 31.8 29.1 26.7 25.6 24.7 23.9 23.3 22.7 22.3 21.9 21.6 21.3 21.1 20.9 20.7 20.5 20.4 20.3 20.1 20.1 20.0 20.0 20.1 20.1 20.1 20.1 20.1 20.1 20.1 20.1 20.1 20.0 20.0 20.0 20.0 20.0 20.0 20.0 20.0 20.0 20.0 20.0 20.0 20.0 20.0 20.0 20.1 20.1 20.1 20.1 20.1 20.1 20.1 20.1 20.1 20.1 20.1 20.1 20.1 20.1 20.1 20.1 20.1 20.1 20.1 20.0 20.0 20.0 20.0 20.0 20.0 20.0 20.1 20.2 20.2 20.2 20.2 20.2 20.2 20.2 20.2 20.2 20.2 20.2 20.2 20.1 20.1 20.1 20.1 20.1 20.1 20.1 20.1 20.1 20.1 20.0 20.0 20.0 20.2 20.2 20.3 20.3 20.3 20.3 20.3 20.3 20.3 20.3 20.3 20.2 20.2 20.2 20.2 20.2 20.2 20.2 20.1 20.1 20.1 20.1 20.1 20.1 20.0 20.0 20.3 20.3 20.4 20.4 20.5 20.5 20.5 20.4 20.5 20.4 20.4 20.3 20.3 20.3 20.3 20.3 20.2 20.2 20.2 20.2 20.2 20.2 20.1 20.1 20.0 20.0 20.4 20.5 20.5 20.5 20.6 20.6 20.6 20.6 20.6 20.6 20.5 20.4 20.4 20.4 20.4 20.3 20.3 20.3 20.3 20.3 20.2 20.2 20.1 20.1 20.0 20.0 20.5 20.6 20.6 20.7 20.7 20.8 20.8 20.8 20.8 20.7 20.6 20.6 20.5 20.5 20.5 20.4 20.4 20.4 20.4 20.3 20.3 20.2 20.1 20.1 20.1 20.0 20.6 20.7 20.8 20.8 20.9 20.9 21.0 21.0 21.0 20.9 20.8 20.7 20.6 20.6 20.6 20.5 20.5 20.5 20.5 20.4 20.3 20.2 20.2 20.1 20.1 20.0 20.7 20.8 20.9 21.0 21.1 21.1 21.2 21.2 21.2 21.0 20.9 20.8 20.8 20.7 20.7 20.7 20.7 20.6 20.5 20.4 20.3 20.2 20.2 20.1 20.1 20.0 20.9 21.0 21.1 21.2 21.3 21.3 21.4 21.5 21.4 21.3 21.1 21.0 20.9 20.9 20.9 20.9 20.8 20.7 20.6 20.4 20.3 20.3 20.2 20.1 20.1 20.0 21.0 21.1 21.3 21.4 21.5 21.6 21.8 21.8 21.7 21.5 21.3 21.2 21.1 21.1 21.1 21.0 20.9 20.7 20.6 20.5 20.4 20.3 20.2 20.1 20.1 20.0 21.2 21.4 21.5 21.7 21.9 22.0 22.1 22.2 22.0 21.8 21.6 21.5 21.4 21.4 21.3 21.1 20.9 20.8 20.6 20.5 20.4 20.3 20.2 20.2 20.1 20.0 21.5 21.6 21.8 22.0 22.3 22.5 22.6 22.6 22.4 22.1 21.9 21.8 21.8 21.6 21.5 21.2 21.0 20.8 20.7 20.6 20.5 20.4 20.3 20.2 20.1 20.0 21.7 21.9 22.1 22.4 22.7 23.0 23.2 23.2 22.9 22.5 22.3 22.2 22.1 21.8 21.6 21.3 21.1 20.9 20.8 20.6 20.5 20.4 20.3 20.2 20.1 20.0 22.0 22.3 22.6 22.9 23.4 23.8 24.1 24.1 23.6 23.1 22.9 22.7 22.4 22.0 21.7 21.4 21.2 21.0 20.9 20.7 20.6 20.4 20.3 20.2 20.1 20.1 22.4 22.7 23.1 23.6 24.2 24.8 25.4 25.2 24.4 23.8 23.5 23.1 22.7 22.2 21.9 21.6 21.4 21.1 20.9 20.8 20.6 20.5 20.3 20.2 20.1 20.1 22.9 23.5 24.5 25.3 26.4 28.8 30.8 28.8 25.6 24.7 24.2 23.6 23.0 22.5 22.1 21.8 21.5 21.3 21.0 20.8 20.7 20.5 20.4 20.2 20.1 20.1 23.4 24.3 26.4 28.5 29.9 35.7 42.7 37.8 28.6 25.9 25.0 24.1 23.4 22.9 22.4 22.0 21.7 21.4 21.1 20.9 20.7 20.5 20.4 20.3 20.1 20.1 24.5 25.7 28.7 34.6 39.3 48.9 59.8 57.2 41.5 28.6 26.0 24.8 23.9 23.2 22.7 22.2 21.9 21.6 21.3 21.0 20.8 20.6 20.4 20.3 20.2 20.1 25.9 28.5 39.1 69.5 99.4 105.5 100.1 92.4 64.5 35.0 27.7 25.7 24.6 23.8 23.2 22.7 22.2 21.8 21.4 21.1 20.9 20.7 20.5 20.3 20.2 20.1 28.2 38.9 71.6 160.9 260.5 284.4 257.1 191.4 96.0 41.7 30.7 26.9 25.6 24.7 23.9 23.1 22.5 22.0 21.6 21.2 20.9 20.7 20.5 20.4 20.2 20.1 31.8 51.6 94.8 208.4 361.1 431.6 421.7 303.0 126.4 46.6 33.4 28.2 26.4 25.2 24.3 23.4 22.7 22.2 21.7 21.3 21.0 20.7 20.6 20.4 20.2 20.1 32.2 48.6 87.4 183.3 304.1 364.2 370.6 287.6 139.0 53.0 31.8 27.9 26.1 24.8 24.1 23.3 22.6 22.0 21.6 21.3 21.0 20.8 20.6 20.3 20.2 20.1 29.8 37.2 64.4 129.2 186.1 191.0 179.9 150.2 90.3 43.3 28.0 26.3 25.0 24.0 23.4 22.8 22.3 21.9 21.5 21.3 21.0 20.8 20.5 20.3 20.2 20.1 27.4 30.1 38.6 61.2 80.2 70.9 57.2 47.6 34.6 28.3 26.2 25.1 24.2 23.4 22.9 22.4 22.0 21.6 21.4 21.1 20.9 20.7 20.5 20.3 20.2 20.1 24.2 26.2 27.4 31.1 35.7 35.5 32.9 30.3 27.7 26.2 25.1 24.3 23.6 22.9 22.5 22.1 21.7 21.4 21.2 20.9 20.7 20.5 20.4 20.2 20.1 20.1 20.0 20.0 20.1 20.1 20.1 20.1 20.1 20.1 20.1 20.1 20.1 20.0 20.0 20.0 20.0 20.0 20.0 20.0 20.0 20.0 20.0 20.0 20.0 20.0 20.0 20.0 20.1 20.1 20.1 20.1 20.1 20.1 20.1 20.1 20.1 20.1 20.1 20.1 20.1 20.1 20.1 20.1 20.1 20.1 20.1 20.0 20.0 20.0 20.0 20.0 20.0 20.0 20.2 20.2 20.2 20.2 20.2 20.2 20.2 20.2 20.2 20.2 20.2 20.2 20.2 20.2 20.1 20.1 20.1 20.1 20.1 20.1 20.1 20.1 20.1 20.1 20.0 20.0 20.3 20.3 20.3 20.4 20.4 20.4 20.3 20.3 20.3 20.3 20.3 20.3 20.2 20.2 20.2 20.2 20.2 20.2 20.2 20.2 20.1 20.1 20.1 20.1 20.0 20.0 20.4 20.4 20.4 20.5 20.5 20.5 20.4 20.4 20.5 20.5 20.4 20.4 20.3 20.3 20.3 20.3 20.3 20.2 20.2 20.2 20.2 20.2 20.1 20.1 20.0 20.0 20.5 20.6 20.6 20.6 20.6 20.6 20.6 20.6 20.7 20.6 20.5 20.5 20.4 20.4 20.4 20.4 20.4 20.3 20.3 20.3 20.2 20.2 20.1 20.1 20.0 20.0 20.6 20.7 20.7 20.8 20.8 20.8 20.8 20.8 20.9 20.8 20.7 20.6 20.6 20.6 20.5 20.5 20.5 20.4 20.4 20.3 20.3 20.2 20.2 20.1 20.1 20.0 20.7 20.8 20.9 20.9 21.0 21.0 21.0 21.1 21.1 20.9 20.8 20.8 20.7 20.7 20.6 20.6 20.6 20.5 20.5 20.4 20.3 20.2 20.2 20.1 20.1 20.0 20.8 20.9 21.1 21.1 21.2 21.2 21.2 21.3 21.3 21.1 21.0 20.9 20.9 20.8 20.8 20.7 20.7 20.7 20.6 20.5 20.4 20.3 20.2 20.1 20.1 20.0 20.9 21.1 21.2 21.4 21.4 21.4 21.5 21.6 21.5 21.3 21.2 21.1 21.0 21.0 20.9 20.9 20.8 20.7 20.6 20.5 20.4 20.3 20.2 20.1 20.1 20.0 21.1 21.3 21.4 21.6 21.7 21.7 21.8 21.9 21.8 21.6 21.4 21.3 21.2 21.2 21.1 21.0 20.9 20.8 20.6 20.5 20.4 20.3 20.2 20.2 20.1 20.0 21.3 21.5 21.7 21.8 22.0 22.1 22.2 22.2 22.1 21.8 21.7 21.6 21.5 21.4 21.3 21.2 21.0 20.8 20.7 20.6 20.4 20.3 20.3 20.2 20.1 20.0 21.6 21.7 21.9 22.1 22.4 22.5 22.7 22.7 22.5 22.1 22.0 21.9 21.8 21.7 21.5 21.3 21.1 20.9 20.8 20.6 20.5 20.4 20.3 20.2 20.1 20.0 21.8 22.1 22.3 22.5 22.8 23.1 23.3 23.3 23.0 22.6 22.4 22.3 22.1 21.9 21.6 21.4 21.2 21.0 20.8 20.7 20.6 20.4 20.3 20.2 20.1 20.1 22.1 22.4 22.7 23.0 23.3 23.7 24.2 24.1 23.6 23.2 23.0 22.7 22.4 22.1 21.7 21.5 21.3 21.1 20.9 20.8 20.6 20.5 20.3 20.2 20.1 20.1 22.5 22.8 23.2 23.7 24.2 24.7 25.3 25.2 24.4 24.0 23.6 23.1 22.7 22.3 22.0 21.7 21.4 21.2 21.0 20.8 20.6 20.5 20.4 20.2 20.1 20.1 23.0 24.0 25.4 25.7 27.0 29.7 30.4 28.0 25.6 24.9 24.3 23.6 23.0 22.6 22.2 21.9 21.6 21.3 21.1 20.9 20.7 20.5 20.4 20.3 20.1 20.1 23.6 25.6 28.3 28.9 28.6 34.5 39.5 34.2 28.0 26.1 25.1 24.2 23.5 23.0 22.5 22.1 21.7 21.4 21.2 20.9 20.8 20.6 20.4 20.3 20.2 20.1 25.2 28.1 31.8 33.7 31.9 45.0 59.9 53.2 38.1 28.3 26.1 24.9 24.0 23.3 22.7 22.3 21.9 21.6 21.3 21.1 20.8 20.6 20.5 20.3 20.2 20.1 27.0 32.9 45.5 67.7 72.8 90.2 116.6 102.8 63.5 33.7 27.9 25.9 24.7 23.8 23.1 22.6 22.2 21.8 21.5 21.2 21.0 20.7 20.5 20.4 20.2 20.1 30.1 52.4 115.6 205.3 204.0 205.1 252.7 187.6 86.2 43.0 32.2 27.4 25.8 24.6 23.7 23.1 22.5 22.0 21.6 21.3 21.0 20.8 20.6 20.4 20.2 20.2 35.5 75.9 178.2 306.3 294.8 309.5 394.8 284.4 121.0 56.0 37.0 28.8 26.7 25.3 24.3 23.4 22.7 22.1 21.7 21.4 21.0 20.8 20.6 20.4 20.2 20.1 37.4 77.7 170.8 276.3 254.9 264.7 341.5 292.2 167.0 65.5 34.6 28.5 26.6 25.2 24.3 23.4 22.7 22.2 21.7 21.4 21.1 20.8 20.6 20.4 20.2 20.1 36.8 66.2 123.6 179.4 166.8 146.8 158.7 164.2 120.1 49.2 28.8 26.8 25.7 24.5 23.7 23.0 22.5 22.0 21.7 21.4 21.1 20.8 20.6 20.4 20.2 20.1 32.0 47.4 63.6 73.0 78.3 69.5 56.5 54.2 43.2 29.0 26.5 25.5 24.6 23.8 23.1 22.6 22.2 21.8 21.5 21.2 21.0 20.7 20.5 20.3 20.2 20.1 24.6 30.2 33.0 33.8 35.8 35.2 33.2 31.0 28.4 26.3 25.3 24.5 23.8 23.2 22.7 22.3 21.9 21.5 21.3 21.0 20.8 20.6 20.4 20.3 20.2 20.1 20.1 20.1 20.1 20.1 20.1 20.0 20.0 20.1 20.1 20.1 20.1 20.0 20.0 20.0 20.0 20.0 20.0 20.0 20.0 20.0 20.0 20.0 20.0 20.0 20.0 20.0 20.1 20.1 20.2 20.1 20.1 20.1 20.1 20.1 20.1 20.1 20.1 20.1 20.1 20.1 20.1 20.1 20.1 20.1 20.1 20.1 20.1 20.1 20.1 20.0 20.0 20.0 20.2 20.2 20.3 20.3 20.3 20.2 20.2 20.2 20.2 20.2 20.2 20.2 20.2 20.2 20.2 20.2 20.2 20.1 20.1 20.1 20.1 20.1 20.1 20.1 20.0 20.0 20.3 20.3 20.4 20.4 20.4 20.4 20.3 20.3 20.4 20.4 20.3 20.3 20.3 20.3 20.2 20.2 20.2 20.2 20.2 20.2 20.2 20.2 20.1 20.1 20.1 20.0 20.4 20.4 20.5 20.6 20.6 20.5 20.4 20.5 20.5 20.5 20.4 20.4 20.4 20.4 20.3 20.3 20.3 20.3 20.3 20.3 20.2 20.2 20.2 20.1 20.1 20.0 20.5 20.6 20.6 20.7 20.7 20.6 20.6 20.6 20.7 20.7 20.6 20.5 20.5 20.5 20.5 20.4 20.4 20.4 20.4 20.3 20.3 20.2 20.2 20.1 20.1 20.0 20.6 20.7 20.8 20.8 20.8 20.8 20.8 20.8 20.9 20.8 20.7 20.7 20.7 20.6 20.6 20.6 20.6 20.5 20.5 20.4 20.3 20.3 20.2 20.1 20.1 20.0 20.7 20.8 20.9 21.0 21.0 21.0 21.0 21.1 21.1 21.0 20.9 20.8 20.8 20.8 20.7 20.7 20.7 20.6 20.6 20.5 20.4 20.3 20.2 20.1 20.1 20.0 20.9 21.0 21.1 21.2 21.2 21.3 21.3 21.3 21.3 21.2 21.1 21.0 20.9 20.9 20.9 20.8 20.8 20.7 20.6 20.5 20.4 20.3 20.2 20.1 20.1 20.0 21.0 21.1 21.3 21.4 21.5 21.5 21.5 21.6 21.6 21.4 21.3 21.2 21.1 21.1 21.0 21.0 20.9 20.8 20.7 20.6 20.4 20.3 20.2 20.2 20.1 20.0 21.2 21.4 21.5 21.6 21.7 21.8 21.8 21.9 21.8 21.6 21.5 21.4 21.4 21.3 21.2 21.1 21.0 20.9 20.7 20.6 20.5 20.4 20.3 20.2 20.1 20.0 21.4 21.6 21.7 21.9 22.0 22.1 22.2 22.3 22.1 21.9 21.7 21.7 21.6 21.5 21.4 21.2 21.1 20.9 20.8 20.6 20.5 20.4 20.3 20.2 20.1 20.1 21.6 21.8 22.0 22.2 22.4 22.6 22.7 22.7 22.5 22.2 22.0 22.0 21.9 21.7 21.5 21.4 21.2 21.0 20.9 20.7 20.6 20.4 20.3 20.2 20.1 20.1 21.9 22.2 22.4 22.6 22.8 23.0 23.3 23.3 22.9 22.7 22.5 22.3 22.2 21.9 21.7 21.5 21.3 21.1 20.9 20.8 20.6 20.5 20.3 20.2 20.1 20.1 22.2 22.5 22.8 23.0 23.3 23.6 24.1 24.1 23.5 23.2 23.0 22.8 22.4 22.1 21.9 21.6 21.4 21.2 21.0 20.8 20.6 20.5 20.4 20.2 20.1 20.1 22.6 22.9 23.3 23.6 24.0 24.4 25.0 25.0 24.3 23.9 23.6 23.1 22.7 22.4 22.1 21.8 21.6 21.3 21.1 20.9 20.7 20.5 20.4 20.3 20.1 20.1 23.5 24.7 25.4 25.5 26.6 28.5 28.8 27.0 25.4 24.7 24.2 23.6 23.1 22.7 22.3 22.0 21.7 21.4 21.2 20.9 20.7 20.6 20.4 20.3 20.1 20.1 25.8 28.4 29.1 27.2 28.3 33.8 36.0 31.8 27.5 25.9 25.0 24.3 23.6 23.1 22.6 22.2 21.8 21.5 21.2 21.0 20.8 20.6 20.4 20.3 20.2 20.1 28.2 32.5 33.7 29.8 37.4 56.3 57.7 45.2 34.4 28.1 26.0 24.9 24.1 23.4 22.8 22.4 22.0 21.7 21.4 21.1 20.9 20.7 20.5 20.4 20.2 20.1 30.2 39.4 49.2 52.0 64.0 98.1 105.7 83.0 55.1 32.6 27.6 25.9 24.8 23.9 23.2 22.7 22.3 21.9 21.6 21.3 21.0 20.8 20.6 20.4 20.2 20.1 41.5 77.0 143.0 159.1 121.7 157.8 192.6 141.6 77.2 41.6 31.3 27.3 25.8 24.6 23.7 23.1 22.5 22.1 21.7 21.4 21.1 20.9 20.6 20.4 20.2 20.1 57.6 122.5 236.2 247.1 175.7 243.9 319.8 238.4 120.3 59.3 37.2 28.8 26.7 25.2 24.2 23.4 22.7 22.1 21.8 21.4 21.1 20.8 20.6 20.4 20.2 20.1 58.6 129.2 234.7 228.2 161.7 227.2 296.1 267.0 166.1 65.4 35.9 28.7 26.9 25.3 24.2 23.4 22.7 22.2 21.8 21.4 21.1 20.8 20.6 20.4 20.2 20.1 48.0 103.0 166.7 156.3 115.8 125.7 135.4 152.1 118.5 45.5 29.4 27.2 26.0 24.8 23.7 23.1 22.6 22.2 21.8 21.4 21.1 20.8 20.6 20.4 20.2 20.1 34.2 60.1 78.5 72.5 68.3 63.0 51.8 53.6 45.7 29.3 26.8 25.8 24.9 24.0 23.3 22.8 22.3 21.9 21.6 21.3 21.0 20.8 20.6 20.4 20.2 20.1 24.4 31.5 35.8 34.9 34.7 33.6 32.1 30.5 28.5 26.6 25.7 24.8 24.0 23.4 22.9 22.4 22.0 21.7 21.4 21.1 20.9 20.7 20.5 20.4 20.2 20.1 20.1 20.1 20.1 20.1 20.1 20.1 20.1 20.1 20.1 20.1 20.1 20.1 20.1 20.0 20.0 20.0 20.1 20.1 20.1 20.1 20.0 20.0 20.0 20.0 20.0 20.0 20.1 20.1 20.2 20.2 20.1 20.1 20.1 20.1 20.1 20.1 20.1 20.1 20.1 20.1 20.1 20.1 20.1 20.1 20.1 20.1 20.1 20.1 20.1 20.1 20.0 20.0 20.2 20.2 20.3 20.3 20.3 20.2 20.2 20.2 20.3 20.3 20.2 20.2 20.2 20.2 20.2 20.2 20.2 20.2 20.2 20.2 20.2 20.1 20.1 20.1 20.0 20.0 20.3 20.3 20.4 20.4 20.4 20.4 20.3 20.3 20.4 20.4 20.3 20.3 20.3 20.3 20.3 20.3 20.3 20.3 20.3 20.3 20.2 20.2 20.2 20.1 20.1 20.0 20.4 20.4 20.5 20.5 20.5 20.5 20.5 20.5 20.5 20.5 20.5 20.4 20.4 20.4 20.4 20.4 20.4 20.4 20.4 20.3 20.3 20.2 20.2 20.1 20.1 20.0 20.5 20.5 20.6 20.6 20.6 20.6 20.6 20.7 20.7 20.7 20.6 20.6 20.5 20.5 20.5 20.5 20.5 20.5 20.5 20.4 20.3 20.3 20.2 20.1 20.1 20.0 20.6 20.7 20.7 20.8 20.8 20.8 20.8 20.9 20.9 20.8 20.8 20.7 20.7 20.7 20.7 20.6 20.6 20.6 20.6 20.5 20.4 20.3 20.2 20.1 20.1 20.0 20.8 20.8 20.9 21.0 21.0 21.0 21.1 21.1 21.1 21.0 20.9 20.9 20.9 20.8 20.8 20.8 20.8 20.7 20.6 20.5 20.4 20.3 20.2 20.2 20.1 20.0 20.9 21.0 21.1 21.2 21.2 21.2 21.3 21.3 21.3 21.2 21.1 21.1 21.0 21.0 21.0 20.9 20.9 20.8 20.7 20.6 20.5 20.3 20.3 20.2 20.1 20.0 21.1 21.2 21.3 21.4 21.4 21.5 21.6 21.6 21.6 21.5 21.3 21.3 21.2 21.2 21.1 21.1 21.0 20.9 20.7 20.6 20.5 20.4 20.3 20.2 20.1 20.0 21.3 21.4 21.5 21.6 21.7 21.8 21.8 21.9 21.8 21.7 21.5 21.5 21.5 21.4 21.3 21.2 21.1 20.9 20.8 20.6 20.5 20.4 20.3 20.2 20.1 20.1 21.5 21.6 21.8 21.9 22.0 22.1 22.2 22.2 22.2 22.0 21.8 21.7 21.7 21.6 21.4 21.3 21.2 21.0 20.9 20.7 20.6 20.4 20.3 20.2 20.1 20.1 21.7 21.9 22.1 22.2 22.3 22.5 22.7 22.7 22.5 22.3 22.1 22.0 21.9 21.7 21.6 21.5 21.3 21.1 20.9 20.8 20.6 20.5 20.3 20.2 20.1 20.1 22.0 22.2 22.4 22.6 22.7 22.9 23.2 23.2 22.9 22.7 22.6 22.4 22.2 22.0 21.8 21.6 21.4 21.2 21.0 20.8 20.7 20.5 20.4 20.2 20.1 20.1 22.2 22.6 22.8 23.0 23.2 23.5 23.8 23.9 23.4 23.2 23.0 22.8 22.4 22.2 22.0 21.8 21.5 21.3 21.1 20.9 20.7 20.5 20.4 20.3 20.1 20.1 22.6 23.0 23.5 23.7 23.9 24.2 24.6 24.6 24.2 23.8 23.5 23.1 22.7 22.4 22.2 21.9 21.7 21.4 21.1 20.9 20.7 20.5 20.4 20.3 20.1 20.1 23.8 24.8 25.5 25.6 26.3 27.2 27.1 26.4 25.4 24.6 24.1 23.6 23.1 22.7 22.4 22.1 21.8 21.5 21.2 21.0 20.7 20.6 20.4 20.3 20.2 20.1 27.3 29.8 28.3 28.0 33.3 35.5 34.1 33.4 30.0 26.1 24.9 24.2 23.6 23.1 22.7 22.2 21.9 21.6 21.3 21.0 20.8 20.6 20.5 20.3 20.2 20.1 32.1 35.7 31.7 45.9 79.3 87.8 67.9 49.8 41.0 31.3 26.0 24.9 24.1 23.4 22.9 22.4 22.0 21.7 21.4 21.2 20.9 20.7 20.5 20.4 20.2 20.1 37.2 45.8 42.9 75.8 143.6 163.4 122.4 83.4 61.8 37.9 27.4 25.7 24.7 23.9 23.2 22.7 22.3 21.9 21.6 21.3 21.1 20.8 20.6 20.4 20.2 20.1 64.2 106.0 113.2 120.8 184.2 219.9 179.1 136.4 92.1 45.2 30.0 26.8 25.5 24.5 23.7 23.1 22.6 22.1 21.7 21.4 21.1 20.9 20.6 20.4 20.2 20.1 101.2 179.0 188.6 159.7 228.1 293.2 267.6 217.9 137.7 64.3 35.9 28.2 26.4 25.1 24.1 23.4 22.7 22.1 21.7 21.4 21.1 20.8 20.6 20.4 20.2 20.1 106.6 185.4 190.8 142.0 197.6 260.5 239.5 212.3 147.1 66.9 35.9 28.3 26.6 25.1 24.0 23.2 22.7 22.2 21.7 21.4 21.1 20.8 20.6 20.4 20.2 20.1 78.1 131.3 143.7 104.8 110.1 129.3 108.2 104.6 86.0 43.0 29.7 27.0 25.8 24.6 23.6 23.0 22.5 22.1 21.7 21.4 21.1 20.8 20.6 20.4 20.2 20.1 43.1 64.8 77.9 69.0 59.7 55.8 47.4 42.2 36.8 29.0 26.9 25.7 24.8 23.9 23.2 22.7 22.3 21.9 21.6 21.3 21.1 20.8 20.6 20.4 20.2 20.1 25.7 32.4 39.0 39.3 35.0 32.2 30.6 29.2 27.9 26.7 25.8 24.9 24.1 23.4 22.9 22.4 22.0 21.7 21.4 21.1 20.9 20.8 20.6 20.4 20.2 20.1 20.0 20.1 20.1 20.1 20.1 20.1 20.1 20.1 20.1 20.1 20.1 20.1 20.1 20.0 20.0 20.0 20.1 20.1 20.1 20.1 20.0 20.0 20.1 20.1 20.0 20.0 20.1 20.1 20.1 20.1 20.1 20.1 20.1 20.1 20.1 20.1 20.1 20.1 20.1 20.1 20.1 20.1 20.1 20.1 20.1 20.1 20.1 20.1 20.1 20.1 20.1 20.0 20.2 20.2 20.2 20.2 20.3 20.2 20.2 20.2 20.3 20.3 20.2 20.2 20.2 20.2 20.2 20.2 20.2 20.2 20.2 20.2 20.2 20.2 20.1 20.1 20.1 20.0 20.3 20.3 20.3 20.4 20.4 20.3 20.3 20.4 20.4 20.4 20.3 20.3 20.3 20.3 20.3 20.3 20.3 20.3 20.3 20.3 20.3 20.2 20.2 20.1 20.1 20.0 20.4 20.4 20.5 20.5 20.5 20.5 20.5 20.5 20.5 20.5 20.5 20.4 20.4 20.4 20.4 20.4 20.4 20.4 20.4 20.4 20.3 20.3 20.2 20.1 20.1 20.0 20.5 20.6 20.6 20.6 20.7 20.6 20.6 20.7 20.7 20.7 20.6 20.6 20.6 20.6 20.5 20.5 20.5 20.5 20.5 20.5 20.4 20.3 20.2 20.2 20.1 20.0 20.7 20.7 20.7 20.8 20.8 20.8 20.8 20.8 20.9 20.9 20.8 20.8 20.7 20.7 20.7 20.7 20.7 20.6 20.6 20.5 20.5 20.4 20.3 20.2 20.1 20.1 20.8 20.9 20.9 21.0 21.0 21.0 21.0 21.0 21.1 21.1 21.0 20.9 20.9 20.9 20.9 20.8 20.8 20.8 20.7 20.6 20.5 20.4 20.3 20.2 20.1 20.1 21.0 21.1 21.1 21.2 21.2 21.2 21.3 21.3 21.3 21.3 21.2 21.1 21.1 21.1 21.0 21.0 20.9 20.9 20.8 20.6 20.5 20.4 20.3 20.2 20.1 20.1 21.2 21.3 21.3 21.4 21.4 21.5 21.5 21.6 21.6 21.5 21.4 21.3 21.3 21.2 21.2 21.1 21.0 20.9 20.8 20.6 20.5 20.4 20.3 20.2 20.1 20.1 21.3 21.5 21.6 21.6 21.7 21.7 21.8 21.9 21.9 21.8 21.6 21.6 21.5 21.4 21.3 21.2 21.1 21.0 20.8 20.7 20.5 20.4 20.3 20.2 20.1 20.1 21.5 21.7 21.8 21.9 22.0 22.1 22.2 22.2 22.2 22.1 21.9 21.8 21.8 21.6 21.5 21.4 21.2 21.1 20.9 20.7 20.6 20.4 20.3 20.2 20.1 20.1 21.8 22.0 22.1 22.2 22.3 22.5 22.6 22.6 22.5 22.4 22.2 22.1 22.0 21.8 21.7 21.5 21.4 21.2 21.0 20.8 20.6 20.5 20.3 20.2 20.1 20.1 22.1 22.3 22.5 22.6 22.7 22.9 23.1 23.1 22.9 22.8 22.6 22.4 22.2 22.0 21.9 21.7 21.4 21.2 21.0 20.8 20.7 20.5 20.4 20.2 20.1 20.1 22.4 22.7 22.9 23.0 23.2 23.3 23.6 23.7 23.4 23.2 22.9 22.7 22.5 22.3 22.1 21.9 21.6 21.3 21.1 20.9 20.7 20.5 20.4 20.3 20.1 20.1 22.8 23.1 23.5 23.7 23.8 24.1 24.4 24.4 24.1 23.8 23.4 23.1 22.8 22.6 22.3 22.0 21.7 21.4 21.1 20.9 20.7 20.5 20.4 20.3 20.1 20.1 23.9 24.7 25.3 25.4 26.0 26.4 26.4 26.2 25.4 24.5 24.0 23.6 23.2 22.9 22.5 22.1 21.7 21.4 21.2 20.9 20.7 20.6 20.4 20.3 20.2 20.1 27.6 29.2 27.9 28.9 32.9 32.4 32.2 35.7 33.1 26.5 24.7 24.1 23.6 23.2 22.7 22.3 21.8 21.5 21.3 21.0 20.8 20.6 20.5 20.3 20.2 20.1 36.4 36.1 39.7 65.2 90.6 87.5 69.1 62.3 59.2 38.6 26.1 24.7 24.1 23.5 23.0 22.5 22.0 21.6 21.4 21.1 20.9 20.7 20.5 20.4 20.2 20.1 44.7 48.7 59.1 114.3 164.7 165.2 137.4 110.9 93.9 53.9 27.8 25.4 24.6 23.9 23.3 22.7 22.2 21.8 21.5 21.2 21.0 20.8 20.5 20.4 20.2 20.1 68.8 100.4 108.3 165.0 225.8 224.2 199.1 166.3 119.8 58.7 30.8 26.5 25.3 24.5 23.8 23.1 22.5 22.0 21.7 21.3 21.0 20.8 20.5 20.4 20.2 20.1 111.7 162.1 151.4 199.4 268.8 264.4 235.3 200.2 145.4 73.6 37.7 28.0 26.1 25.1 24.1 23.3 22.6 22.1 21.7 21.4 21.1 20.8 20.5 20.3 20.2 20.1 133.6 167.5 132.4 154.7 206.9 198.8 170.0 143.8 120.1 73.0 38.3 28.1 26.3 25.1 24.0 23.2 22.6 22.1 21.7 21.4 21.1 20.8 20.6 20.4 20.2 20.1 102.9 119.8 102.0 100.3 109.0 97.8 76.3 59.6 56.5 44.1 30.8 26.8 25.6 24.6 23.6 22.9 22.5 22.0 21.7 21.4 21.1 20.8 20.6 20.4 20.2 20.1 52.8 64.9 75.1 73.8 61.8 53.8 44.7 34.8 30.8 28.8 26.8 25.7 24.8 23.9 23.2 22.6 22.2 21.9 21.6 21.3 21.1 20.8 20.6 20.4 20.2 20.1 28.6 36.0 46.5 49.0 40.7 33.8 30.0 28.3 27.4 26.5 25.7 24.9 24.2 23.6 23.0 22.5 22.0 21.7 21.4 21.2 20.9 20.7 20.6 20.4 20.2 20.1 20.1 20.1 20.1 20.1 20.1 20.1 20.1 20.1 20.1 20.1 20.1 20.1 20.1 20.1 20.1 20.1 20.1 20.1 20.1 20.1 20.1 20.1 20.1 20.1 20.1 20.0 20.1 20.1 20.1 20.1 20.1 20.1 20.1 20.1 20.1 20.1 20.1 20.1 20.1 20.1 20.1 20.1 20.1 20.1 20.1 20.1 20.1 20.1 20.1 20.1 20.1 20.0 20.2 20.2 20.2 20.2 20.2 20.2 20.2 20.2 20.2 20.2 20.2 20.2 20.2 20.2 20.2 20.2 20.2 20.2 20.2 20.2 20.2 20.2 20.2 20.1 20.1 20.0 20.3 20.3 20.3 20.4 20.4 20.3 20.3 20.4 20.4 20.4 20.3 20.3 20.3 20.3 20.3 20.3 20.3 20.3 20.3 20.3 20.3 20.3 20.2 20.1 20.1 20.0 20.4 20.4 20.5 20.5 20.5 20.5 20.5 20.5 20.5 20.5 20.5 20.5 20.5 20.4 20.4 20.4 20.4 20.4 20.4 20.4 20.4 20.3 20.2 20.2 20.1 20.0 20.6 20.6 20.6 20.7 20.7 20.6 20.6 20.7 20.7 20.7 20.7 20.7 20.6 20.6 20.6 20.6 20.6 20.5 20.5 20.5 20.5 20.4 20.3 20.2 20.1 20.0 20.8 20.8 20.8 20.9 20.9 20.8 20.8 20.9 20.9 20.9 20.9 20.9 20.8 20.7 20.7 20.7 20.7 20.7 20.6 20.6 20.5 20.4 20.3 20.2 20.1 20.0 21.0 21.0 21.0 21.0 21.0 21.0 21.0 21.1 21.1 21.2 21.1 21.1 21.0 21.0 20.9 20.9 20.9 20.8 20.7 20.7 20.5 20.4 20.3 20.2 20.1 20.1 21.2 21.3 21.3 21.2 21.2 21.2 21.2 21.3 21.4 21.4 21.4 21.3 21.2 21.2 21.1 21.0 21.0 20.9 20.8 20.7 20.6 20.4 20.3 20.2 20.1 20.1 21.3 21.4 21.5 21.5 21.5 21.4 21.5 21.5 21.6 21.6 21.5 21.5 21.4 21.3 21.2 21.1 21.1 21.0 20.8 20.7 20.5 20.4 20.3 20.2 20.1 20.1 21.4 21.6 21.6 21.7 21.7 21.7 21.7 21.8 21.9 21.9 21.8 21.7 21.6 21.5 21.4 21.3 21.1 21.0 20.9 20.7 20.6 20.4 20.3 20.2 20.1 20.1 21.6 21.7 21.8 22.0 22.0 22.0 22.1 22.2 22.2 22.2 22.1 22.0 21.8 21.7 21.5 21.4 21.3 21.1 21.0 20.8 20.6 20.5 20.3 20.2 20.1 20.1 21.9 22.0 22.2 22.2 22.3 22.4 22.6 22.6 22.6 22.5 22.4 22.2 22.0 21.8 21.7 21.6 21.4 21.2 21.1 20.9 20.7 20.5 20.4 20.2 20.1 20.1 22.2 22.4 22.5 22.6 22.7 22.8 23.0 23.1 23.0 22.9 22.7 22.5 22.2 22.0 21.9 21.7 21.5 21.3 21.1 20.9 20.7 20.5 20.4 20.2 