<?xml version="1.0"?>
<VTKFile type="PolyData" version="1.0" byte_order="LittleEndian" header_type="UInt64">
<PolyData>
<Piece NumberOfPoints="4187" NumberOfVerts="0" NumberOfLines="0" NumberOfPolys="0">
    <Points>
        <DataArray type="Float32" NumberOfComponents="3" format="ascii">
        16.6694 10.0051 0.6186 16.7535 5.7045 5.1759 17.2213 9.6014 0.7866 16.1135 9.4709 2.4683 16.0481 10.7923 1.6641 15.9383 10.7296 5.1369 15.3588 10.6857 4.5435 15.1753 8.1065 3.9858 15.4327 10.9626 1.0265 15.4500 10.5509 1.3494 15.3042 10.8816 1.2022 15.6893 10.5109 0.5118 18.3155 12.8160 0.6060 19.5780 10.8639 1.7864 15.3705 8.6209 3.9390 15.0400 8.9065 2.2887 15.7404 9.3581 1.5522 16.8689 8.2181 1.5401 16.2177 1.9182 5.7214 15.0203 4.7657 3.0194 15.8651 6.5858 1.2203 19.4212 11.0610 2.2909 17.2576 5.0545 1.5707 18.8491 10.2575 2.3580 16.9444 9.8781 1.2368 18.2101 10.3261 1.3440 18.3270 10.3594 0.7054 20.4601 4.8402 4.2579 19.2719 10.9156 2.2812 16.2841 8.1122 3.6342 16.2323 8.5478 3.0386 18.6185 10.7977 8.3940 19.4689 10.7014 1.5083 18.7397 11.1314 8.3940 16.2674 8.3554 3.1287 16.7871 9.4465 1.6164 17.1405 8.2880 3.2568 18.4477 14.3253 8.3940 18.7518 14.3754 8.3940 18.7681 14.2735 8.3940 17.7391 10.2955 8.3940 16.7000 4.1166 5.2715 19.1260 13.0296 8.3940 18.4248 14.2543 8.3940 17.3605 7.3864 5.0087 18.3987 14.6246 8.3940 17.9745 8.2910 3.2164 18.4476 10.0017 0.9257 18.7493 7.2526 3.2689 17.7401 10.0516 8.3940 19.0004 6.7482 3.8308 19.2267 12.5389 8.3940 19.0524 13.9470 8.3940 15.3270 10.3637 8.3940 19.3021 12.5009 8.3940 19.2616 13.3094 8.3940 19.2584 13.3407 8.3940 19.0330 11.8252 8.3940 18.4629 10.7416 8.3940 20.2873 3.0611 5.4391 17.9710 9.8951 1.1924 18.5620 9.0656 2.9627 15.3554 11.5640 0.8825 19.3129 8.5166 5.0126 18.5181 10.7160 2.6890 16.8448 10.0000 2.0139 18.1020 10.5381 8.3940 18.8757 10.4025 2.3314 16.7037 10.1540 8.3940 15.2799 10.2566 8.3940 16.8603 10.0469 8.3940 18.3540 8.1054 4.9084 15.5936 10.4500 8.3940 18.8883 14.0178 8.3940 15.2942 10.0000 0.9425 17.8022 14.5970 8.3940 15.4415 10.0000 0.9011 18.0536 7.1519 5.7180 15.3105 9.5450 3.5289 17.5337 10.0205 8.3940 18.5577 10.2783 2.6494 15.7141 10.1857 8.3940 15.6012 10.1606 8.3940 18.8866 11.1968 8.3940 16.4795 9.9505 8.3940 18.3841 10.6063 8.3940 17.5430 10.1573 8.3940 18.3365 11.0204 8.3940 19.2806 12.4649 8.3940 17.5575 11.0156 3.6496 15.4781 12.5720 1.3260 18.5870 10.6075 2.6201 17.6962 10.1930 8.3940 15.9605 10.3824 8.3940 18.7796 11.5932 8.3940 15.3737 8.8055 2.8337 15.1129 9.8201 2.0416 18.6353 10.4851 2.5718 18.9110 13.1273 8.3940 17.7660 14.7743 8.3940 16.2137 9.9976 8.3940 16.5554 10.0261 8.3940 18.7256 11.2043 8.3940 15.2450 11.1277 1.4778 17.8038 10.8599 3.4033 15.7118 14.7242 8.3940 19.0064 10.3729 2.2007 18.7010 11.2512 8.3940 15.5191 9.9614 0.5737 18.7345 10.4918 2.4726 15.8253 9.6062 3.7561 15.0699 9.4442 2.4049 18.9072 13.5925 8.3940 19.1193 12.9839 8.3940 15.7630 10.5517 8.3940 16.0492 11.3582 6.8023 16.9473 14.7226 8.3940 17.3544 10.2483 8.3940 18.7415 11.4407 8.3940 18.5426 11.0798 8.3940 15.0073 10.0000 0.7221 18.6181 10.3429 2.5890 18.5872 10.7738 2.6199 18.5891 10.6253 2.6180 15.0843 10.7719 1.4025 18.7269 10.2937 2.4802 15.0039 9.5000 1.4302 18.6833 10.7549 2.5238 15.0872 10.6300 1.3249 16.3179 2.6226 4.6340 18.2013 10.0000 2.2056 18.7842 10.7126 2.3918 18.4518 10.8315 8.3940 19.1341 12.1550 8.3940 17.0637 14.6985 8.3940 19.1049 12.8054 8.3940 18.2203 10.5864 8.3940 17.8548 14.7402 8.3940 17.9994 14.4458 8.3940 16.8692 10.4242 8.3940 17.1438 10.0890 8.3940 15.3262 14.5329 8.3940 15.3518 14.5248 8.3940 18.7998 12.4384 8.3940 18.6188 13.6655 8.3940 18.7740 13.3206 8.3940 15.3924 10.7838 8.3940 18.8034 12.4513 8.3940 15.6337 10.5851 8.3940 18.1738 14.0634 8.3940 18.7183 11.8770 8.3940 18.6803 13.9536 8.3940 17.7271 10.6414 8.3940 15.3679 10.3437 0.9220 18.4183 11.3770 8.3940 18.7871 11.6537 8.3940 16.5689 10.2572 8.3940 15.4854 10.7565 8.3940 15.8258 14.7503 8.3940 18.7879 12.3502 8.3940 18.5949 13.7003 8.3940 15.1697 10.0857 1.0820 15.5363 9.2205 0.9832 18.4516 10.2572 2.7555 15.2723 10.4203 8.3940 15.3446 10.4007 8.3940 17.0018 14.6764 8.3940 15.4897 10.4207 8.3940 15.5662 14.3142 8.3940 17.5953 14.5538 8.3940 19.0030 12.5978 8.3940 19.0478 12.2656 8.3940 15.1694 8.7443 0.9339 17.4095 10.3036 8.3940 17.3859 10.2786 8.3940 17.4888 10.6107 8.3940 18.6516 11.9100 8.3940 18.4994 11.1721 8.3940 17.3266 14.5221 8.3940 15.4892 14.2910 8.3940 18.7533 10.6102 2.4538 17.2125 14.5511 8.3940 18.7632 12.3699 8.3940 15.7652 10.3133 8.3940 18.5231 11.1382 8.3940 18.0720 13.9437 8.3940 18.5853 13.2532 8.3940 16.2674 6.7417 1.6005 16.2626 10.2543 8.3940 15.6111 14.2730 8.3940 18.4059 13.9973 8.3940 18.2160 14.0581 8.3940 15.6895 14.4206 8.3940 15.3803 10.8587 8.3940 15.5352 14.2824 8.3940 18.7247 12.5688 8.3940 16.0645 8.2408 1.4468 18.2269 11.2288 8.3940 18.9829 12.1334 8.3940 16.7036 10.3592 8.3940 18.8773 11.7774 8.3940 17.4632 14.7695 8.3940 16.0006 14.7046 8.3940 18.4477 14.0756 8.3940 18.6305 12.3016 8.3940 18.5322 10.2733 2.6749 15.3755 10.5941 8.3940 18.8169 13.3176 8.3940 18.7561 12.3187 8.3940 16.8401 10.2136 8.3940 17.0892 8.5524 1.3374 18.8155 13.4413 8.3940 18.6293 13.3963 8.3940 18.5137 11.4809 8.3940 16.1244 10.3338 8.3940 18.4117 13.7083 8.3940 16.9815 14.5683 8.3940 18.7871 12.3842 8.3940 17.8002 10.7225 8.3940 17.9134 10.8370 8.3940 17.5768 14.3153 8.3940 16.0481 14.4020 8.3940 18.0635 14.3648 8.3940 18.6293 11.4421 8.3940 16.1095 3.3010 4.8619 18.7397 10.5245 2.4674 18.5219 10.3141 2.6852 18.7092 10.4426 2.4979 16.7529 10.5006 8.3940 18.2049 10.0000 2.5901 16.5726 8.2116 5.0672 18.6737 13.5193 8.3940 15.9105 10.6927 8.3940 18.5898 10.7342 2.6173 15.3615 13.9676 8.3940 18.3470 10.7029 2.8601 18.8240 10.3916 2.3831 18.4952 13.9617 8.3940 15.9906 14.3598 8.3940 18.0342 14.3700 8.3940 17.4738 14.5451 8.3940 18.8523 10.3117 2.3548 18.0857 10.5301 3.1214 15.9991 5.4253 6.0561 18.4598 11.4103 8.3940 15.5386 14.5514 8.3940 16.2350 14.5259 8.3940 18.4273 13.7140 8.3940 18.2294 11.2830 8.3940 18.4739 10.6570 2.7332 16.5593 8.0945 3.7612 16.5058 10.6237 8.3940 17.4107 14.2008 8.3940 15.3349 14.3818 8.3940 17.0727 14.5499 8.3940 17.6384 10.2918 1.5473 18.6236 12.8949 8.3940 18.5594 12.6058 8.3940 17.7157 10.9058 8.3940 16.8863 8.9292 2.1744 15.4545 10.6263 8.3940 18.5251 11.9543 8.3940 15.4169 14.1235 8.3940 15.9928 10.5450 8.3940 17.7596 10.8796 8.3940 18.5062 12.1927 8.3940 18.2001 10.0000 2.7983 18.8345 12.5429 8.3940 18.5082 12.9556 8.3940 16.7267 14.6357 8.3940 18.4150 13.5628 8.3940 18.2153 13.4603 8.3940 16.8730 14.5570 8.3940 18.6312 12.4347 8.3940 16.4001 9.9860 4.9712 18.6498 13.0667 8.3940 16.8055 14.7011 8.3940 17.4972 14.4397 8.3940 15.2399 13.7761 8.3940 18.4729 13.2452 8.3940 18.2741 13.6693 8.3940 18.1604 13.8629 8.3940 16.7122 14.3455 8.3940 16.1397 10.5883 8.3940 16.3384 10.7082 8.3940 15.7648 14.4728 8.3940 18.2167 14.1264 8.3940 18.6001 12.5358 8.3940 16.6945 10.5310 8.3940 18.6361 10.7547 2.5710 15.3621 10.8795 8.3940 18.2319 11.2049 8.3940 17.0250 8.9521 3.2076 15.3736 14.3059 8.3940 15.7624 14.4952 8.3940 18.7503 10.3914 2.4568 18.7237 11.9329 8.3940 18.7490 11.9237 8.3940 17.8578 10.7852 8.3940 15.5834 14.1646 8.3940 16.6351 14.3327 8.3940 17.4229 10.0242 2.1850 15.3415 10.9374 8.3940 18.5803 10.6457 2.6268 18.6520 10.6039 2.5551 18.7979 10.2219 2.4092 18.4361 11.5463 8.3940 17.8285 14.4782 8.3940 18.1637 13.8969 8.3940 17.8847 10.7599 8.3940 17.2786 9.8504 0.6794 17.2002 10.6211 8.3940 16.0613 10.5615 8.3940 18.5535 13.8284 8.3940 16.7426 14.7946 8.3940 16.3078 14.6318 8.3940 16.3046 3.9159 3.5592 16.1081 5.7080 6.4299 18.0445 13.9649 8.3940 17.1464 14.6391 8.3940 15.2871 11.0709 8.3940 15.5554 10.8891 8.3940 18.2990 11.3994 8.3940 18.6431 11.5245 8.3940 16.8472 8.6656 2.9123 17.5479 10.4612 8.3940 15.5920 10.7948 8.3940 18.2820 11.3239 8.3940 16.8329 14.5037 8.3940 18.8476 12.2832 8.3940 18.6367 11.8324 8.3940 15.2789 14.3298 8.3940 18.3090 13.8820 8.3940 17.9796 11.1407 8.3940 18.6209 12.5971 8.3940 15.3427 14.1481 8.3940 18.2075 11.2790 8.3940 18.8126 12.4743 8.3940 15.4232 11.0641 8.3940 17.2638 14.7433 8.3940 15.1956 13.9294 8.3940 15.7185 10.4560 8.3940 16.9948 14.6777 8.3940 16.5629 10.6410 8.3940 16.4024 14.4326 8.3940 17.5928 14.2825 8.3940 17.8864 14.3202 8.3940 18.3355 10.6714 2.8716 18.5852 12.1584 8.3940 16.5161 14.6982 8.3940 17.1124 8.9139 2.9407 17.2135 10.5990 8.3940 15.2206 14.1310 8.3940 18.5645 12.3533 8.3940 17.1594 10.4107 8.3940 18.3809 13.4496 8.3940 17.9709 11.2308 8.3940 16.6882 14.4430 8.3940 18.5867 12.4308 8.3940 16.9906 10.0000 3.1485 17.6014 14.3607 8.3940 17.0554 14.6069 8.3940 17.7816 14.0210 8.3940 18.6183 11.9113 8.3940 17.0470 9.0949 1.5399 16.2874 14.6181 8.3940 15.1753 13.7154 8.3940 15.6925 10.7604 8.3940 15.2100 10.8385 8.3940 17.3043 10.8604 8.3940 18.4722 13.5400 8.3940 15.3698 14.2484 8.3940 17.4823 14.1331 8.3940 15.8227 10.6473 8.3940 15.7804 10.8927 8.3940 17.4142 14.2680 8.3940 16.8128 14.6238 8.3940 16.8311 14.4020 8.3940 18.2512 13.7971 8.3940 18.1767 13.5512 8.3940 16.8356 8.5276 3.8671 17.0684 10.7014 8.3940 16.6479 14.6847 8.3940 15.1615 11.2807 8.3940 18.1769 11.2367 8.3940 17.8416 14.3021 8.3940 18.6260 10.4269 2.5811 17.3749 10.0000 2.5743 15.8179 7.4164 5.4201 16.1439 6.1555 3.1599 15.0202 10.0000 0.9308 17.0795 8.1670 3.4739 17.6106 10.0000 0.5701 15.1687 7.9930 2.7127 17.9721 10.4542 3.2350 17.1460 6.6483 2.5419 17.4910 7.0657 1.4212 17.3267 8.1087 5.0618 16.8726 7.0254 6.1445 17.6962 11.1234 3.5109 18.4458 10.6747 2.7613 17.4954 10.0000 2.4870 18.5000 10.7630 2.7071 15.5984 9.7734 1.5055 17.5141 10.9396 3.6930 18.6828 10.3360 2.5243 18.1971 10.0000 2.3743 17.0334 11.6696 4.1738 15.9695 7.9873 2.2666 18.6657 10.2475 2.5414 15.9081 14.1963 8.3940 18.7290 10.5432 2.4781 18.2925 10.3288 2.9146 17.6410 10.5128 1.0251 16.2256 6.9831 0.9202 17.2145 11.2254 4.4893 15.3218 14.0928 8.3940 18.1800 10.7106 3.0271 18.4504 10.7560 2.7567 15.4002 7.8929 1.7486 18.0178 11.0593 8.3940 15.9216 6.4676 2.5291 18.0686 13.7168 8.3940 17.0141 9.9296 2.3598 15.5986 9.6922 1.
[...]
    <PointData>
        <DataArray type="Float32" Name="tag" format="ascii">
            131.0000 8603.0000 10311.0000 10611.0000 12211.0000 12631.0000 14215.0000 14587.0000 18383.0000 18851.0000 20847.0000 21911.0000 23951.0000 30395.0000 30607.0000 33571.0000 33583.0000 35963.0000 39383.0000 39535.0000 39655.0000 39943.0000 41895.0000 46347.0000 46683.0000 63635.0000 65379.0000 66299.0000 47043.0000 47311.0000 48039.0000 48363.0000 49643.0000 50039.0000 50047.0000 50311.0000 50735.0000 53515.0000 53535.0000 53539.0000 55283.0000 56307.0000 57183.0000 58003.0000 58471.0000 58875.0000 59927.0000 59947.0000 60495.0000 60563.0000 62419.0000 62951.0000 63815.0000 63911.0000 63927.0000 64587.0000 65551.0000 66439.0000 66479.0000 66523.0000 66703.0000 66955.0000 84223.0000 72203.0000 71559.0000 84911.0000 67267.0000 68607.0000 69479.0000 69487.0000 69491.0000 69651.0000 70879.0000 70911.0000 71147.0000 71627.0000 71955.0000 72047.0000 72379.0000 73115.0000 73623.0000 74755.0000 74783.0000 74839.0000 75595.0000 75631.0000 75651.0000 75683.0000 75719.0000 76459.0000 76475.0000 77059.0000 77315.0000 77351.0000 77451.0000 77663.0000 77883.0000 79527.0000 79911.0000 79967.0000 79999.0000 80831.0000 81759.0000 81939.0000 82235.0000 82543.0000 83019.0000 83415.0000 83623.0000 83867.0000 84667.0000 84863.0000 85127.0000 85171.0000 85227.0000 85379.0000 85955.0000 85959.0000 86047.0000 86067.0000 86155.0000 99303.0000 105495.0000 101803.0000 91423.0000 101699.0000 93607.0000 100807.0000 92919.0000 102899.0000 99935.0000 105207.0000 86895.0000 86915.0000 86979.0000 86999.0000 87807.0000 88559.0000 88663.0000 89475.0000 90231.0000 90283.0000 90303.0000 90363.0000 90915.0000 90963.0000 91771.0000 91823.0000 91843.0000 92415.0000 93203.0000 93219.0000 93343.0000 93471.0000 93983.0000 94103.0000 94623.0000 94655.0000 95295.0000 95307.0000 95419.0000 95439.0000 95467.0000 95515.0000 96019.0000 96555.0000 96571.0000 96643.0000 96667.0000 96771.0000 97871.0000 97887.0000 97911.0000 97919.0000 97923.0000 97939.0000 98015.0000 98019.0000 99327.0000 99615.0000 99647.0000 100215.0000 100295.0000 100303.0000 100319.0000 100331.0000 100383.0000 101067.0000 101083.0000 101099.0000 101127.0000 101167.0000 101195.0000 101199.0000 101203.0000 101279.0000 101495.0000 101991.0000 102159.0000 102287.0000 102335.0000 103019.0000 103031.0000 103039.0000 103075.0000 103475.0000 103955.0000 104007.0000 104159.0000 104183.0000 104315.0000 104903.0000 104923.0000 104979.0000 105639.0000 105775.0000 105795.0000 106419.0000 106487.0000 106531.0000 106583.0000 106639.0000 106667.0000 106683.0000 106723.0000 118583.0000 110443.0000 121423.0000 120615.0000 123667.0000 116047.0000 119071.0000 112803.0000 117011.0000 120551.0000 111415.0000 112259.0000 111103.0000 111923.0000 111919.0000 111903.0000 124351.0000 118519.0000 107815.0000 120519.0000 111871.0000 111067.0000 123519.0000 124311.0000 114759.0000 118167.0000 115931.0000 124287.0000 115923.0000 115919.0000 125063.0000 119699.0000 114371.0000 120467.0000 111023.0000 113603.0000 110191.0000 118935.0000 123451.0000 112655.0000 117423.0000 118927.0000 119647.0000 116519.0000 112647.0000 121143.0000 124231.0000 118095.0000 119615.0000 118075.0000 114323.0000 124183.0000 124927.0000 124179.0000 118859.0000 112591.0000 112587.0000 122671.0000 115831.0000 118847.0000 118843.0000 114291.0000 118039.0000 126603.0000 112551.0000 120331.0000 118835.0000 109327.0000 121079.0000 125771.0000 111675.0000 118011.0000 122615.0000 125743.0000 120291.0000 125739.0000 124535.0000 118779.0000 116919.0000 116143.0000 123747.0000 107295.0000 107339.0000 107391.0000 107483.0000 108091.0000 108099.0000 108195.0000 108231.0000 108255.0000 108451.0000 108459.0000 109031.0000 109035.0000 109119.0000 109191.0000 109791.0000 109983.0000 110759.0000 110803.0000 110831.0000 110899.0000 110903.0000 111467.0000 111475.0000 111515.0000 111607.0000 111623.0000 111655.0000 113155.0000 113203.0000 113419.0000 113447.0000 113483.0000 113487.0000 114039.0000 114915.0000 114927.0000 114943.0000 115667.0000 115767.0000 116331.0000 116391.0000 117167.0000 117311.0000 117855.0000 118591.0000 119419.0000 120111.0000 120251.0000 121031.0000 121611.0000 121643.0000 121651.0000 121743.0000 122375.0000 122503.0000 122539.0000 123099.0000 123127.0000 123131.0000 123159.0000 123203.0000 123215.0000 123219.0000 123227.0000 123259.0000 123939.0000 124043.0000 124659.0000 124663.0000 124747.0000 124791.0000 124799.0000 124823.0000 125439.0000 125547.0000 125603.0000 125655.0000 126351.0000 126383.0000 126427.0000 126443.0000 126479.0000 140835.0000 137603.0000 136687.0000 135659.0000 142447.0000 136563.0000 135619.0000 146823.0000 130987.0000 130215.0000 130983.0000 145879.0000 130195.0000 127731.0000 135591.0000 129547.0000 136515.0000 133731.0000 128547.0000 137411.0000 130935.0000 135507.0000 128691.0000 131159.0000 135715.0000 145815.0000 127639.0000 130907.0000 146903.0000 143235.0000 145019.0000 129239.0000 137515.0000 129223.0000 130847.0000 145763.0000 130079.0000 131807.0000 129175.0000 134535.0000 140543.0000 136387.0000 129151.0000 129147.0000 130015.0000 132699.0000 139783.0000 128347.0000 128339.0000 135331.0000 136319.0000 134455.0000 132687.0000 129071.0000 134423.0000 127443.0000 134395.0000 133483.0000 141259.0000 137295.0000 143831.0000 140455.0000 146619.0000 146611.0000 129943.0000 132643.0000 143815.0000 129935.0000 135259.0000 131651.0000 129919.0000 130631.0000 145639.0000 139651.0000 142919.0000 145607.0000 146567.0000 132555.0000 140379.0000 131583.0000 142091.0000 142891.0000 130567.0000 138051.0000 143731.0000 129859.0000 145547.0000 142859.0000 134259.0000 132507.0000 128979.0000 142823.0000 135139.0000 139583.0000 146515.0000 128967.0000 129495.0000 145479.0000 140307.0000 145475.0000 142775.0000 127299.0000 141115.0000 140303.0000 136147.0000 136143.0000 142003.0000 145459.0000 136135.0000 144575.0000 133359.0000 144563.0000 145431.0000 145927.0000 144551.0000 127103.0000 127123.0000 127259.0000 128059.0000 128067.0000 128115.0000 128795.0000 128847.0000 129579.0000 129623.0000 129799.0000 130475.0000 131279.0000 131391.0000 131415.0000 132207.0000 132307.0000 132423.0000 132439.0000 133063.0000 133111.0000 133123.0000 133211.0000 133275.0000 133339.0000 134059.0000 134147.0000 134151.0000 134899.0000 134919.0000 134927.0000 134947.0000 134991.0000 135787.0000 135835.0000 135839.0000 135891.0000 135987.0000 135999.0000 136003.0000 136027.0000 136055.0000 136087.0000 136103.0000 136755.0000 136943.0000 137687.0000 137691.0000 137771.0000 137843.0000 137867.0000 137975.0000 138683.0000 138711.0000 138787.0000 138839.0000 139395.0000 139463.0000 139491.0000 140147.0000 140171.0000 140879.0000 140919.0000 140943.0000 141047.0000 141631.0000 141643.0000 141659.0000 141715.0000 141775.0000 141819.0000 141823.0000 141855.0000 141867.0000 141879.0000 142631.0000 142691.0000 142727.0000 143375.0000 143455.0000 143539.0000 143583.0000 143635.0000 143639.0000 144259.0000 144415.0000 144479.0000 144519.0000 145187.0000 145287.0000 145295.0000 146107.0000 146147.0000 146191.0000 146207.0000 146247.0000 146251.0000 146271.0000 146323.0000 152583.0000 151543.0000 147891.0000 156203.0000 147731.0000 160823.0000 149647.0000 147839.0000 155195.0000 147819.0000 151427.0000 150499.0000 168231.0000 166319.0000 152239.0000 157871.0000 148495.0000 151211.0000 148479.0000 152203.0000 155915.0000 149359.0000 149355.0000 151151.0000 155899.0000 151135.0000 152151.0000 156903.0000 158735.0000 147383.0000 158719.0000 171451.0000 150235.0000 150227.0000 151103.0000 160567.0000 160563.0000 152115.0000 154891.0000 156843.0000 150207.0000 153015.0000 157683.0000 160535.0000 147339.0000 148327.0000 164215.0000 158675.0000 149227.0000 154871.0000 152995.0000 152103.0000 158667.0000 160507.0000 166099.0000 152099.0000 160503.0000 154863.0000 162339.0000 160491.0000 147103.0000 147143.0000 147211.0000 147223.0000 147235.0000 147239.0000 147283.0000 147287.0000 147983.0000 148051.0000 148067.0000 148199.0000 148275.0000 148867.0000 148995.0000 149003.0000 149087.0000 149103.0000 149111.0000 149131.0000 149219.0000 149903.0000 149991.0000 150019.0000 150079.0000 150879.0000 150911.0000 150923.0000 150935.0000 150975.0000 150999.0000 151003.0000 151699.0000 151723.0000 151823.0000 151839.0000 151935.0000 151971.0000 151999.0000 152039.0000 152087.0000 152599.0000 152643.0000 152695.0000 152795.0000 152863.0000 152867.0000 152891.0000 152895.0000 152971.0000 152975.0000 153535.0000 153651.0000 153735.0000 153827.0000 153831.0000 153851.0000 153943.0000 153959.0000 153963.0000 154519.0000 154587.0000 154707.0000 154719.0000 154743.0000 154819.0000 155431.0000 155447.0000 155491.0000 155675.0000 155711.0000 156375.0000 156587.0000 156607.0000 156687.0000 156707.0000 156711.0000 156799.0000 157275.0000 157287.0000 157319.0000 157427.0000 157447.0000 157471.0000 157579.0000 158259.0000 158523.0000 158527.0000 158655.0000 159143.0000 159303.0000 159331.0000 159371.0000 159387.0000 159395.0000 159435.0000 159503.0000 159531.0000 159559.0000 160095.0000 160111.0000 160151.0000 160207.0000 160303.0000 160311.0000 160395.0000 160411.0000 160415.0000 160459.0000 161107.0000 161163.0000 161195.0000 161211.0000 161219.0000 161387.0000 161439.0000 162935.0000 162987.0000 163031.0000 163051.0000 163103.0000 163147.0000 163203.0000 163315.0000 163331.0000 163395.0000 163787.0000 163875.0000 164127.0000 164759.0000 164767.0000 164939.0000 165067.0000 165099.0000 165167.0000 165171.0000 165207.0000 165299.0000 165771.0000 165903.0000 166679.0000 166791.0000 166859.0000 166903.0000 167059.0000 167727.0000 167803.0000 168611.0000 168619.0000 168935.0000 170199.0000 170207.0000 170211.0000 170227.0000 170383.0000 170527.0000 170571.0000 171107.0000 171811.0000 171823.0000 171827.0000 171967.0000 171983.0000 172083.0000 172103.0000 172107.0000 172111.0000 172115.0000 172163.0000 172219.0000 172639.0000 172711.0000 172855.0000 213711.0000 205907.0000 201727.0000 192599.0000 213439.0000 194039.0000 207371.0000 202899.0000 203159.0000 183119.0000 201707.0000 201407.0000 181535.0000 174915.0000 204307.0000 204655.0000 192523.0000 204651.0000 192487.0000 204291.0000 208763.0000 210279.0000 187895.0000 213335.0000 210503.0000 210219.0000 183019.0000 204223.0000 204531.0000 192743.0000 196879.0000 183003.0000 186195.0000 181395.0000 201627.0000 202751.0000 203075.0000 197187.0000 195295.0000 204191.0000 174731.0000 194151.0000 197155.0000 178003.0000 200131.0000 193771.0000 195227.0000 198235.0000 187739.0000 193719.0000 208567.0000 201107.0000 196779.0000 181263.0000 179579.0000 208559.0000 205627.0000 208539.0000 207491.0000 188087.0000 173447.0000 173587.0000 173703.0000 173707.0000 173907.0000 174567.0000 175163.0000 175171.0000 175251.0000 175259.0000 175351.0000 175407.0000 175455.0000 176155.0000 176775.0000 176787.0000 176947.0000 176995.0000 177091.0000 177095.0000 177403.0000 178423.0000 178515.0000 178583.0000 178635.0000 178743.0000 179495.0000 180083.0000 180247.0000 180279.0000 180287.0000 180295.0000 180319.0000 180339.0000 180447.0000 180455.0000 180543.0000 180759.0000 180883.0000 180931.0000 181819.0000 182091.0000 182263.0000 183371.0000 183383.0000 183435.0000 183627.0000 183683.0000 183687.0000 183783.0000 185003.0000 185047.0000 185303.0000 185351.0000 185375.0000 185483.0000 185859.0000 187079.0000 187111.0000 187471.0000 187539.0000 187563.0000 188279.0000 188391.0000 188527.0000 188583.0000 188643.0000 188819.0000 189115.0000 189143.0000 189299.0000 189935.0000 189967.0000 190083.0000 190191.0000 190267.0000 190291.0000 190355.0000 190359.0000 191415.0000 191475.0000 191487.0000 191523.0000 191579.0000 191703.0000 191771.0000 191807.0000 191935.0000 191955.0000 192175.0000 193007.0000 193043.0000 193091.0000 193147.0000 193155.0000 193263.0000 193271.0000 193275.0000 193339.0000 193371.0000 193399.0000 193403.0000 194395.0000 194599.0000 194623.0000 194747.0000 194831.0000 194871.0000 194907.0000 195083.0000 195859.0000 195887.0000 195919.0000 196071.0000 196243.0000 196263.0000 196355.0000 196363.0000 197447.0000 197491.0000 197591.0000 197687.0000 197931.0000 197947.0000 198991.0000 199051.0000 199083.0000 199087.0000 199099.0000 199195.0000 199227.0000 199395.0000 200303.0000 200451.0000 200519.0000 200547.0000 200635.0000 200643.0000 201027.0000 201771.0000 201823.0000 202055.0000 202111.0000 202163.0000 202219.0000 202283.0000 203267.0000 203371.0000 203479.0000 203495.0000 203611.0000 203879.0000 204775.0000 204867.0000 204887.0000 204895.0000 204927.0000 204983.0000 205391.0000 205407.0000 206419.0000 206503.0000 206603.0000 206643.0000 206651.0000 206655.0000 206991.0000 207735.0000 207767.0000 207811.0000 207895.0000 207959.0000 207971.0000 208055.0000 208099.0000 208115.0000 208159.0000 209291.0000 209367.0000 209415.0000 209451.0000 209483.0000 209519.0000 209539.0000 209543.0000 209551.0000 209591.0000 209595.0000 210023.0000 210027.0000 210671.0000 210683.0000 210735.0000 210739.0000 210815.0000 210827.0000 210871.0000 210983.0000 211027.0000 211107.0000 211259.0000 211503.0000 212251.0000 212363.0000 212367.0000 212387.0000 212399.0000 212419.0000 212439.0000 212455.0000 212519.0000 212567.0000 212727.0000 212823.0000 212839.0000 212959.0000 212963.0000 224071.0000 222627.0000 243359.0000 236031.0000 222559.0000 247639.0000 240251.0000 247631.0000 234615.0000 246103.0000 252255.0000 236003.0000 238807.0000 243011.0000 232643.0000 229543.0000 232631.0000 239859.0000 246051.0000 242947.0000 252211.0000 250983.0000 232587.0000 252195.0000 249455.0000 250595.0000 235695.0000 234275.0000 250587.0000 221075.0000 241367.0000 232911.0000 238467.0000 237351.0000 235663.0000 249431.0000 247863.0000 250539.0000 252139.0000 238455.0000 221055.0000 226639.0000 234511.0000 247383.0000 235647.0000 244359.0000 223687.0000 247835.0000 239707.0000 232863.0000 226575.0000 216407.0000 252495.0000 235619.0000 223639.0000 252047.0000 244755.0000 249375.0000 219215.0000 247303.0000 235579.0000 247291.0000 241199.0000 252475.0000 232827.0000 235871.0000 232811.0000 235863.0000 246319.0000 244731.0000 232775.0000 241587.0000 235811.0000 235803.0000 247791.0000 241519.0000 228243.0000 243083.0000 244647.0000 250871.0000 252387.0000 249255.0000 238595.0000 249179.0000 213811.0000 213843.0000 214171.0000 214175.0000 214211.0000 214767.0000 215391.0000 215499.0000 215567.0000 215627.0000 216315.0000 216887.0000 216943.0000 216999.0000 217019.0000 217023.0000 217147.0000 217187.0000 217195.0000 218479.0000 218559.0000 218611.0000 218635.0000 219739.0000 219947.0000 219995.0000 220123.0000 220151.0000 220219.0000 221367.0000 221443.0000 221527.0000 221643.0000 222971.0000 223047.0000 223159.0000 224103.0000 224163.0000 224359.0000 224419.0000 224447.0000 224459.0000 224975.0000 225551.0000 225591.0000 225631.0000 225771.0000 225823.0000 225847.0000 225899.0000 225939.0000 226039.0000 226403.0000 226443.0000 226979.0000 227027.0000 227075.0000 227103.0000 227119.0000 227183.0000 227195.0000 227203.0000 227247.0000 227303.0000 227307.0000 227611.0000 228455.0000 228471.0000 228499.0000 228527.0000 228535.0000 228595.0000 228979.0000 229887.0000 229967.0000 230195.0000 230211.0000 230247.0000 230283.0000 230303.0000 230947.0000 231487.0000 231495.0000 231571.0000 231671.0000 231687.0000 231695.0000 231807.0000 233055.0000 233063.0000 233163.0000 233247.0000 233291.0000 233379.0000 233387.0000 233475.0000 233551.0000 233587.0000 233859.0000 234727.0000 234803.0000 234879.0000 234919.0000 234947.0000 234975.0000 235263.0000 235459.0000 235527.0000 236095.0000 236215.0000 236267.0000 236391.0000 236767.0000 236847.0000 237771.0000 237807.0000 237843.0000 238875.0000 238903.0000 238951.0000 238999.0000 239051.0000 239119.0000 239187.0000 239199.0000 240307.0000 240459.0000 240551.0000 240555.0000 240667.0000 240703.0000 241091.0000 241823.0000 241827.0000 241859.0000 241883.0000 241955.0000 242047.0000 242099.0000 242131.0000 242135.0000 242227.0000 242271.0000 242531.0000 242707.0000 243531.0000 243675.0000 243719.0000 243919.0000 244927.0000 244959.0000 245175.0000 245227.0000 245259.0000 245267.0000 245311.0000 245351.0000 245803.0000 245815.0000 245819.0000 245847.0000 246463.0000 246615.0000 246647.0000 246703.0000 246747.0000 246763.0000 247255.0000 248067.0000 248139.0000 248191.0000 248203.0000 248247.0000 248351.0000 248439.0000 248551.0000 249607.0000 249643.0000 249667.0000 249755.0000 249831.0000 249979.0000 250431.0000 250455.0000 251191.0000 251211.0000 251327.0000 251391.0000 251875.0000 277011.0000 264063.0000 262367.0000 278867.0000 278847.0000 288187.0000 267099.0000 276455.0000 282007.0000 284463.0000 287591.0000 255667.0000 291271.0000 265159.0000 274555.0000 283899.0000 281991.0000 258547.0000 267067.0000 258543.0000 258539.0000 261871.0000 267059.0000 281979.0000 256743.0000 255243.0000 270815.0000 258915.0000 269459.0000 265703.0000 291223.0000 263515.0000 256723.0000 272683.0000 254127.0000 274499.0000 265075.0000 278223.0000 253723.0000 267003.0000 265059.0000 257187.0000 288135.0000 287475.0000 287463.0000 263487.0000 265019.0000 278183.0000 282507.0000 275015.0000 265643.0000 274435.0000 283743.0000 285559.0000 258443.0000 276883.0000 261719.0000 291879.0000 274999.0000 267507.0000 281831.0000 269419.0000 255079.0000 254111.0000 264959.0000 260183.0000 288083.0000 283719.0000 282487.0000 264943.0000 291103.0000 273107.0000 266935.0000 256615.0000 263923.0000 274391.0000 260151.0000 261627.0000 257139.0000 284327.0000 268799.0000 253603.0000 274355.0000 263355.0000 287303.0000 291051.0000 278759.0000 270619.0000 260127.0000 268683.0000 289131.0000 291003.0000 279963.0000 271191.0000 258363.0000 263867.0000 256515.0000 271183.0000 276163.0000 269363.0000 287211.0000 261547.0000 263863.0000 290971.0000 279923.0000 261535.0000 285367.0000 274919.0000 272443.0000 271159.0000 289047.0000 278699.0000 254031.0000 254027.0000 273023.0000 257075.0000 291727.0000 269315.0000 260515.0000 262163.0000 253975.0000 289891.0000 289883.0000 265523.0000 253955.0000 262123.0000 291703.0000 267363.0000 255471.0000 269255.0000 255439.0000 291687.0000 258703.0000 256995.0000 287971.0000 286067.0000 258691.0000 269227.0000 289855.0000 274859.0000 269191.0000 260395.0000 269179.0000 274847.0000 267283.0000 291663.0000 278611.0000 272927.0000 258611.0000 290919.0000 291659.0000 269151.0000 263643.0000 270987.0000 267227.0000 286015.0000 267171.0000 274767.0000 274763.0000 276631.0000 287115.0000 284135.0000 287931.0000 278523.0000 272831.0000 289803.0000 280371.0000 276547.0000 276535.0000 280331.0000 278455.0000 280323.0000 276503.0000 278423.0000 280287.0000 291575.0000 287831.0000 282051.0000 283991.0000 272787.0000 289627.0000 287727.0000 289531.0000 291387.0000 252667.0000 252687.0000 252787.0000 252987.0000 252995.0000 253371.0000 254299.0000 254455.0000 254547.0000 254563.0000 254599.0000 254843.0000 255783.0000 255811.0000 255835.0000 255851.0000 255863.0000 255903.0000 255927.0000 255999.0000 256095.0000 256199.0000 256355.0000 256431.0000 257367.0000 257463.0000 257491.0000 257551.0000 257559.0000 257799.0000 257843.0000 258063.0000 258179.0000 259003.0000 259163.0000 259235.0000 259263.0000 259347.0000 260015.0000 260067.0000 260751.0000 260835.0000 260851.0000 260899.0000 261003.0000 261351.0000 262383.0000 262571.0000 262627.0000 262823.0000 262847.0000 262915.0000 262947.0000 262979.0000 263083.0000 263175.0000 264163.0000 264255.0000 264343.0000 264363.0000 264395.0000 264411.0000 264535.0000 264539.0000 264687.0000 265783.0000 265787.0000 265815.0000 265823.0000 265871.0000 265939.0000 265975.0000 266079.0000 266099.0000 266215.0000 266251.0000 266331.0000 266375.0000 266403.0000 266703.0000 266735.0000 266759.0000 267659.0000 267667.0000 267683.0000 267851.0000 267927.0000 267971.0000 268003.0000 268103.0000 268235.0000 268243.0000 269619.0000 269791.0000 269835.0000 269927.0000 270007.0000 270019.0000 270055.0000 270099.0000 270151.0000 270195.0000 270247.0000 270491.0000