<?xml version="1.0"?>
<VTKFile type="PolyData" version="1.0" byte_order="LittleEndian" header_type="UInt64">
<PolyData>
<Piece NumberOfPoints="1412" NumberOfVerts="0" NumberOfLines="0" NumberOfPolys="700">
    <Points>
        <DataArray type="Float32" NumberOfComponents="3" format="ascii">
        18.0 10.0 1.8 18.0 10.0 1.8 18.0 10.0 1.8 18.0 10.0 1.8 18.0 10.2 1.8 18.0 10.2 1.8 18.0 10.0 1.8 18.0 10.0 1.8 18.0 10.0 1.8 18.1 10.0 1.6 18.3 10.0 1.8 18.0 10.0 1.8 18.0 10.2 1.8 18.1 10.2 1.6 18.1 10.0 1.6 18.3 10.0 1.8 18.1 10.0 1.6 18.1 10.2 1.6 18.3 10.2 1.8 18.0 10.2 1.8 18.0 10.8 1.8 18.0 10.8 1.8 18.0 10.2 1.8 18.0 10.2 1.8 18.0 10.8 1.8 18.1 10.8 1.6 18.1 10.2 1.6 18.3 10.2 1.8 18.1 10.2 1.6 18.1 10.8 1.6 18.3 10.8 1.8 18.0 10.8 1.8 18.0 11.4 1.8 18.0 11.4 1.8 18.0 10.8 1.8 18.0 10.8 1.8 18.0 11.4 1.8 18.1 11.4 1.6 18.1 10.8 1.6 18.3 10.8 1.8 18.1 10.8 1.6 18.1 11.4 1.6 18.3 11.4 1.8 18.0 11.4 1.8 18.0 12.0 1.8 18.0 12.0 1.8 18.0 11.4 1.8 18.0 11.4 1.8 18.0 12.0 1.8 18.1 12.0 1.6 18.1 11.4 1.6 18.3 11.4 1.8 18.1 11.4 1.6 18.1 12.0 1.6 18.3 12.0 1.8 18.0 12.0 1.8 18.0 12.6 1.8 18.0 12.6 1.8 18.0 12.0 1.8 18.0 12.0 1.8 18.0 12.6 1.8 18.1 12.6 1.6 18.1 12.0 1.6 18.3 12.0 1.8 18.1 12.0 1.6 18.1 12.6 1.6 18.3 12.6 1.8 18.0 12.6 1.8 18.0 13.2 1.8 18.0 13.2 1.8 18.0 12.6 1.8 18.0 12.6 1.8 18.0 13.2 1.8 18.1 13.2 1.6 18.1 12.6 1.6 18.3 12.6 1.8 18.1 12.6 1.6 18.1 13.2 1.6 18.3 13.2 1.8 18.3 13.1 1.8 18.3 13.1 1.8 18.3 13.2 1.8 18.3 13.2 1.8 18.0 13.2 1.8 18.0 13.8 1.8 18.0 13.8 1.8 18.0 13.2 1.8 18.0 13.8 1.8 18.0 13.8 1.8 18.0 13.8 1.8 18.0 13.8 1.8 18.0 13.2 1.8 18.0 13.8 1.8 18.0 13.8 1.8 18.1 13.8 1.6 18.1 13.2 1.6 18.0 13.8 1.8 18.0 13.8 1.8 18.0 13.8 1.8 18.3 13.2 1.8 18.1 13.2 1.6 18.1 13.8 1.6 18.2 13.8 1.7 18.3 13.2 1.8 18.3 13.2 1.8 18.2 13.8 1.7 18.3 13.8 1.8 18.0 13.8 1.8 18.0 14.0 1.8 18.0 14.0 1.8 18.0 13.8 1.8 18.0 14.0 1.8 18.0 14.0 1.8 18.0 14.0 1.8 18.0 13.8 1.8 18.0 14.0 1.8 18.1 14.0 1.6 18.0 13.8 1.8 18.0 14.0 1.8 18.0 14.0 1.8 18.3 14.0 1.8 18.1 14.0 1.6 18.1 13.8 1.6 18.0 13.8 1.8 18.1 14.0 1.6 18.2 13.8 1.7 18.1 13.8 1.6 18.1 14.0 1.6 18.3 13.8 1.8 18.2 13.8 1.7 18.1 14.0 1.6 18.3 14.0 1.8 17.4 10.0 2.4 17.4 10.0 2.4 17.4 10.0 2.4 17.4 10.0 2.4 17.4 10.2 2.4 17.4 10.2 2.4 17.4 10.0 2.4 17.4 10.0 2.4 17.4 10.0 2.4 18.0 10.0 1.8 18.0 10.0 1.8 18.0 10.0 2.4 17.4 10.0 2.4 17.4 10.2 2.4 18.0 10.2 1.8 18.0 10.0 1.8 18.0 10.0 2.4 18.0 10.0 1.8 18.3 10.0 1.8 18.6 10.0 2.1 18.6 10.0 2.4 18.3 10.0 1.8 18.3 10.2 1.8 18.6 10.2 2.1 18.6 10.0 2.1 18.6 10.0 2.4 18.6 10.0 2.1 18.9 10.0 2.4 18.8 10.0 2.4 18.6 10.0 2.1 18.6 10.2 2.1 18.8 10.2 2.3 18.9 10.0 2.4 18.8 10.0 2.4 18.9 10.0 2.4 18.9 10.2 2.4 18.8 10.2 2.4 18.9 10.0 2.4 18.8 10.2 2.3 18.9 10.2 2.4 18.9 10.0 2.4 18.8 10.0 2.4 18.8 10.0 2.4 17.4 10.2 2.4 17.4 10.8 2.4 17.4 10.8 2.4 17.4 10.2 2.4 17.4 10.2 2.4 17.4 10.8 2.4 18.0 10.8 1.8 18.0 10.2 1.8 18.3 10.2 1.8 18.3 10.8 1.8 18.6 10.8 2.1 18.6 10.2 2.1 18.6 10.2 2.1 18.6 10.8 2.1 18.7 10.8 2.2 18.8 10.2 2.3 18.8 10.2 2.4 18.9 10.2 2.4 18.9 10.8 2.4 18.8 10.8 2.4 18.9 10.2 2.4 18.8 10.2 2.3 18.7 10.8 2.2 18.9 10.8 2.4 17.4 10.8 2.4 17.4 11.4 2.4 17.4 11.4 2.4 17.4 10.8 2.4 17.4 10.8 2.4 17.4 11.4 2.4 18.0 11.4 1.8 18.0 10.8 1.8 18.3 10.8 1.8 18.3 11.4 1.8 18.6 11.4 2.1 18.6 10.8 2.1 18.6 10.8 2.1 18.6 11.4 2.1 18.6 11.4 2.1 18.7 10.8 2.2 18.8 10.8 2.4 18.9 10.8 2.4 18.9 11.4 2.4 18.8 11.4 2.4 18.9 10.8 2.4 18.7 10.8 2.2 18.6 11.4 2.1 18.9 11.4 2.4 17.4 11.4 2.4 17.4 12.0 2.4 17.4 12.0 2.4 17.4 11.4 2.4 17.4 11.4 2.4 17.4 12.0 2.4 18.0 12.0 1.8 18.0 11.4 1.8 18.3 11.4 1.8 18.3 12.0 1.8 18.5 12.0 2.0 18.6 11.4 2.1 18.6 11.4 2.1 18.5 12.0 2.0 18.6 12.0 2.1 18.6 11.4 2.1 18.6 11.4 2.1 18.6 11.4 2.1 18.6 11.4 2.1 18.6 11.4 2.1 18.6 12.0 2.1 18.9 12.0 2.4 18.9 11.4 2.4 18.6 11.4 2.1 18.8 11.4 2.4 18.9 11.4 2.4 18.9 12.0 2.4 18.8 12.0 2.4 17.4 12.0 2.4 17.4 12.6 2.4 17.4 12.6 2.4 17.4 12.0 2.4 17.4 12.0 2.4 17.4 12.6 2.4 18.0 12.6 1.8 18.0 12.0 1.8 18.5 12.0 2.0 18.4 12.6 1.9 18.6 12.6 2.1 18.6 12.0 2.1 18.5 12.0 2.0 18.3 12.0 1.8 18.3 12.6 1.8 18.4 12.6 1.9 18.6 12.0 2.1 18.6 12.6 2.1 18.9 12.6 2.4 18.9 12.0 2.4 18.8 12.0 2.4 18.9 12.0 2.4 18.9 12.6 2.4 18.8 12.6 2.4 17.4 12.6 2.4 17.4 12.9 2.4 17.4 12.9 2.4 17.4 12.6 2.4 17.4 12.9 2.4 17.4 13.2 2.4 17.4 13.2 2.4 17.4 12.9 2.4 17.4 12.6 2.4 17.4 12.9 2.4 17.6 13.2 2.2 18.0 13.2 1.8 18.0 12.6 1.8 17.4 12.9 2.4 17.4 13.2 2.4 17.6 13.2 2.2 18.4 12.6 1.9 18.3 13.1 1.8 18.3 13.2 1.8 18.6 13.2 2.1 18.6 12.6 2.1 18.4 12.6 1.9 18.3 12.6 1.8 18.3 13.1 1.8 18.6 12.6 2.1 18.6 13.2 2.1 18.9 13.2 2.4 18.9 12.6 2.4 18.8 12.6 2.4 18.9 12.6 2.4 18.9 13.2 2.4 18.8 13.2 2.4 17.4 13.2 2.4 17.4 13.8 2.4 17.4 13.8 2.4 17.4 13.2 2.4 17.4 13.2 2.4 17.4 13.8 2.4 18.0 13.8 1.8 18.0 13.8 1.8 17.6 13.2 2.2 18.0 13.2 1.8 17.6 13.2 2.2 18.0 13.8 1.8 18.3 13.2 1.8 18.3 13.8 1.8 18.6 13.8 2.1 18.6 13.2 2.1 18.6 13.2 2.1 18.6 13.8 2.1 18.9 13.8 2.4 18.9 13.2 2.4 18.8 13.2 2.4 18.9 13.2 2.4 18.9 13.8 2.4 18.8 13.8 2.4 17.4 13.8 2.4 17.4 14.0 2.4 17.4 14.0 2.4 17.4 13.8 2.4 17.4 14.0 2.4 17.4 14.0 2.4 17.4 14.0 2.4 17.4 13.8 2.4 17.4 14.0 2.4 18.0 14.0 1.8 18.0 13.8 1.8 17.4 14.0 2.4 17.4 14.0 2.4 18.0 14.0 2.4 18.0 14.0 1.8 18.0 14.0 1.8 18.0 14.0 1.8 18.0 14.0 2.4 18.6 14.0 2.4 18.6 14.0 2.1 18.3 14.0 1.8 18.3 13.8 1.8 18.3 14.0 1.8 18.6 14.0 2.1 18.6 13.8 2.1 18.6 13.8 2.1 18.6 14.0 2.1 18.9 14.0 2.4 18.9 13.8 2.4 18.6 14.0 2.1 18.6 14.0 2.4 18.8 14.0 2.4 18.9 14.0 2.4 18.8 13.8 2.4 18.9 13.8 2.4 18.9 14.0 2.4 18.8 13.9 2.4 18.9 14.0 2.4 18.8 14.0 2.4 18.8 13.9 2.4 18.9 14.0 2.4 18.8 14.0 2.4 18.8 14.0 2.4 16.8 10.0 3.0 16.8 10.0 3.0 16.8 10.0 3.0 16.8 10.0 3.0 16.8 10.2 3.0 16.8 10.2 3.0 16.8 10.0 3.0 16.8 10.0 3.0 16.8 10.0 3.0 17.4 10.0 2.4 17.4 10.0 2.4 17.4 10.0 3.0 16.8 10.0 3.0 16.8 10.2 3.0 17.4 10.2 2.4 17.4 10.0 2.4 17.4 10.0 3.0 17.4 10.0 2.4 18.0 10.0 2.4 18.0 10.0 2.9 17.8 10.0 3.0 17.8 10.0 3.0 18.0 10.0 2.9 18.0 10.0 3.0 18.0 10.0 2.9 18.0 10.0 2.4 18.6 10.0 2.4 18.6 10.0 2.5 18.0 10.0 3.0 18.0 10.0 2.9 18.6 10.0 2.5 18.6 10.0 2.6 18.2 10.0 3.0 18.2 10.2 3.0 18.2 10.0 3.0 18.6 10.0 2.6 18.6 10.2 2.6 18.6 10.0 2.5 18.6 10.0 2.4 18.8 10.0 2.4 18.6 10.0 2.6 18.6 10.0 2.5 18.8 10.0 2.4 18.8 10.0 2.4 18.6 10.2 2.6 18.6 10.0 2.6 18.8 10.0 2.4 18.8 10.2 2.4 16.8 10.2 3.0 16.8 10.8 3.0 16.8 10.8 3.0 16.8 10.2 3.0 16.8 10.2 3.0 16.8 10.8 3.0 17.4 10.8 2.4 17.4 10.2 2.4 18.2 10.8 3.0 18.2 10.2 3.0 18.6 10.2 2.6 18.6 10.8 2.6 18.6 10.8 2.6 18.6 10.2 2.6 18.8 10.2 2.4 18.8 10.8 2.4 16.8 10.8 3.0 16.8 11.4 3.0 16.8 11.4 3.0 16.8 10.8 3.0 16.8 10.8 3.0 16.8 11.4 3.0 17.4 11.4 2.4 17.4 10.8 2.4 18.2 11.4 3.0 18.2 10.8 3.0 18.6 10.8 2.6 18.6 11.4 2.6 18.6 11.4 2.6 18.6 10.8 2.6 18.8 10.8 2.4 18.8 11.4 2.4 16.8 11.4 3.0 16.8 12.0 3.0 16.8 12.0 3.0 16.8 11.4 3.0 16.8 11.4 3.0 16.8 12.0 3.0 17.4 12.0 2.4 17.4 11.4 2.4 18.2 12.0 3.0 18.2 11.4 3.0 18.6 11.4 2.6 18.6 12.0 2.6 18.6 12.0 2.6 18.6 11.4 2.6 18.8 11.4 2.4 18.8 12.0 2.4 16.8 12.0 3.0 16.8 12.1 3.0 16.8 12.1 3.0 16.8 12.0 3.0 16.8 12.1 3.0 16.8 12.6 3.0 16.8 12.6 3.0 16.8 12.1 3.0 16.8 12.0 3.0 16.8 12.1 3.0 17.2 12.6 2.6 17.4 12.6 2.4 17.4 12.0 2.4 16.8 12.1 3.0 16.8 12.6 3.0 17.2 12.6 2.6 18.2 12.6 3.0 18.2 12.0 3.0 18.6 12.0 2.6 18.6 12.6 2.6 18.6 12.6 2.6 18.6 12.0 2.6 18.8 12.0 2.4 18.8 12.6 2.4 16.8 12.6 3.0 16.8 13.2 3.0 16.8 13.2 3.0 16.8 12.6 3.0 16.8 12.6 3.0 16.8 13.2 3.0 17.4 13.2 2.4 17.4 12.9 2.4 17.2 12.6 2.6 17.4 12.6 2.4 17.2 12.6 2.6 17.4 12.9 2.4 18.3 13.2 2.9 18.2 13.1 3.0 18.2 12.6 3.0 18.6 12.6 2.6 18.6 13.2 2.6 18.2 13.1 3.0 18.3 13.2 2.9 18.2 13.2 3.0 18.6 13.2 2.6 18.6 12.6 2.6 18.8 12.6 2.4 18.8 13.2 2.4 16.8 13.2 3.0 16.8 13.8 3.0 16.8 13.8 3.0 16.8 13.2 3.0 16.8 13.2 3.0 16.8 13.8 3.0 17.4 13.8 2.4 17.4 13.2 2.4 18.3 13.2 2.9 18.6 13.2 2.6 18.6 13.6 2.6 18.2 13.8 3.0 18.2 13.2 3.0 18.3 13.2 2.9 18.6 13.6 2.6 18.6 13.8 2.6 18.6 13.6 2.6 18.6 13.2 2.6 18.8 13.2 2.4 18.8 13.8 2.4 18.7 13.8 2.5 18.6 13.8 2.6 18.6 13.6 2.6 18.7 13.8 2.5 16.8 13.8 3.0 16.8 14.0 3.0 16.8 14.0 3.0 16.8 13.8 3.0 16.8 14.0 3.0 16.8 14.0 3.0 16.8 14.0 3.0 16.8 13.8 3.0 16.8 14.0 3.0 17.4 14.0 2.4 17.4 13.8 2.4 16.8 14.0 3.0 16.8 14.0 3.0 17.4 14.0 3.0 17.4 14.0 2.4 17.4 14.0 2.4 17.4 14.0 2.4 17.4 14.0 3.0 17.8 14.0 3.0 18.0 14.0 2.9 18.0 14.0 2.4 17.8 14.0 3.0 18.0 14.0 3.0 18.0 14.0 2.9 18.0 14.0 2.4 18.0 14.0 2.9 18.6 14.0 2.5 18.6 14.0 2.4 18.0 14.0 2.9 18.0 14.0 3.0 18.2 14.0 3.0 18.6 14.0 2.6 18.6 14.0 2.5 18.2 14.0 3.0 18.2 13.8 3.0 18.6 13.8 2.6 18.6 14.0 2.6 18.6 14.0 2.4 18.6 14.0 2.5 18.8 14.0 2.4 18.6 14.0 2.6 18.6 13.8 2.6 18.7 13.8 2.5 18.8 13.9 2.4 18.8 14.0 2.4 18.6 14.0 2.5 18.6 14.0 2.6 18.8 14.0 2.4 18.8 14.0 2.4 18.7 13.8 2.5 18.8 13.8 2.4 18.8 13.9 2.4 16.2 10.0 3.6 16.2 10.0 3.6 16.2 10.0 3.6 16.2 10.0 3.6 16.2 10.2 3.6 16.2 10.2 3.6 16.2 10.0 3.6 16.2 10.0 3.6 16.2 10.0 3.6 16.8 10.0 3.0 16.8 10.0 3.0 16.8 10.0 3.6 16.8 10.0 3.6 16.2 10.0 3.6 16.2 10.2 3.6 16.8 10.2 3.0 16.8 10.0 3.0 16.8 10.0 3.6 16.8 10.0 3.6 16.8 10.0 3.6 16.8 10.0 3.6 16.8 10.0 3.0 17.4 10.0 3.0 17.4 10.0 3.2 16.8 10.0 3.6 16.8 10.0 3.6 17.4 10.0 3.2 17.4 10.0 3.6 17.4 10.0 3.2 17.4 10.0 3.0 17.8 10.0 3.0 17.4 10.0 3.6 17.4 10.0 3.2 17.8 10.0 3.0 18.0 10.0 3.0 18.0 10.0 3.2 17.6 10.0 3.6 17.6 10.2 3.6 17.6 10.0 3.6 18.0 10.0 3.2 18.0 10.2 3.2 18.0 10.0 3.2 18.0 10.0 3.0 18.2 10.0 3.0 18.0 10.2 3.2 18.0 10.0 3.2 18.2 10.0 3.0 18.2 10.2 3.0 16.2 10.2 3.6 16.2 10.8 3.6 16.2 10.8 3.6 16.2 10.2 3.6 16.2 10.2 3.6 16.2 10.8 3.6 16.8 10.8 3.0 16.8 10.2 3.0 17.6 10.8 3.6 17.6 10.2 3.6 18.0 10.2 3.2 18.0 10.8 3.2 18.0 10.8 3.2 18.0 10.2 3.2 18.2 10.2 3.0 18.2 10.8 3.0 16.2 10.8 3.6 16.2 11.2 3.6 16.2 11.2 3.6 16.2 10.8 3.6 16.2 11.2 3.6 16.2 11.4 3.6 16.2 11.4 3.6 16.2 11.2 3.6 16.2 10.8 3.6 16.2 11.2 3.6 16.3 11.4 3.5 16.8 11.4 3.0 16.8 10.8 3.0 16.2 11.2 3.6 16.2 11.4 3.6 16.3 11.4 3.5 17.6 11.4 3.6 17.6 10.8 3.6 18.0 10.8 3.2 18.0 11.4 3.2 18.0 11.4 3.2 18.0 10.8 3.2 18.2 10.8 3.0 18.2 11.4 3.0 16.2 11.4 3.6 16.2 12.0 3.6 16.2 12.0 3.6 16.2 11.4 3.6 16.2 11.4 3.6 16.2 12.0 3.6 16.7 12.0 3.1 16.3 11.4 3.5 16.8 11.4 3.0 16.3 11.4 3.5 16.7 1
[...]
    <CellData>
        <DataArray type="Float32" Name="WALL TEMPERATURE" format="ascii">
            84.6 101.7 101.7 360.2 360.2 192.7 192.7 178.5 178.5 156.9 156.9 294.5 294.5 275.8 275.8 259.8 259.8 448.1 448.1 433.8 433.8 430.2 430.2 669.4 669.4 717.5 717.5 639.7 639.7 870.1 870.1 959.6 959.6 750.6 750.6 954.6 954.6 1049.2 1049.2 1049.2 1049.2 674.3 674.3 674.3 674.3 921.0 921.0 921.0 900.5 1017.7 1017.7 1017.7 1017.7 400.5 400.5 156.2 784.2 784.2 917.0 917.0 799.5 924.6 924.6 924.6 78.9 76.0 76.0 188.3 188.3 188.3 90.0 90.0 321.5 321.5 321.5 160.5 160.5 323.2 323.2 140.5 140.5 184.4 184.4 140.5 323.2 112.0 112.0 135.7 135.7 251.9 251.9 225.3 225.3 285.4 285.4 225.3 225.3 192.3 192.3 229.5 229.5 411.8 411.8 383.7 383.7 448.4 448.4 383.7 383.7 347.1 347.1 397.6 397.6 683.0 683.0 683.0 682.6 637.6 637.6 637.6 637.6 653.8 653.8 511.7 511.7 594.3 594.3 909.5 909.5 910.0 910.0 849.3 849.3 831.5 831.5 581.5 581.5 581.5 581.5 776.9 776.9 776.9 718.2 1010.8 1010.8 1010.8 1011.3 962.4 962.4 926.5 926.5 522.2 522.2 648.0 648.0 648.0 701.3 996.5 996.5 968.0 968.0 932.9 932.9 311.3 311.3 132.3 364.2 364.2 353.8 353.8 353.8 888.7 888.7 888.7 911.4 911.4 898.6 898.6 890.8 890.8 862.0 862.0 859.1 890.8 72.6 62.8 62.8 144.4 144.4 144.4 69.7 69.7 68.8 68.8 68.8 68.8 179.6 179.6 179.6 179.6 179.6 96.0 96.0 240.2 240.2 240.2 109.8 109.8 89.2 89.2 100.5 100.5 145.0 145.0 168.5 168.5 149.9 149.9 172.4 172.4 252.9 252.9 291.3 291.3 285.2 285.2 325.8 325.8 436.8 436.8 468.8 468.8 428.7 428.7 428.7 428.7 535.1 535.1 535.1 502.1 624.3 624.3 647.2 647.2 476.7 476.7 573.0 573.0 573.0 609.2 738.7 738.7 738.7 735.0 771.4 771.4 426.0 426.0 490.7 490.7 731.9 724.7 724.7 724.7 783.6 783.6 783.6 783.6 239.6 239.6 111.3 282.1 282.1 258.1 258.1 258.1 121.2 121.2 121.2 121.2 491.9 491.9 491.9 491.9 491.9 569.8 569.8 644.0 626.0 626.0 626.0 644.0 644.0 679.5 61.7 52.2 52.2 112.7 112.7 112.7 112.7 57.7 57.7 111.7 76.2 76.2 76.3 76.3 114.9 114.8 114.8 114.8 114.8 73.4 73.4 174.4 79.9 79.9 71.4 71.4 80.0 80.0 102.3 102.3 118.0 118.0 112.8 112.8 112.6 112.6 157.9 157.9 157.9 135.3 178.6 178.6 203.1 203.1 228.1 228.1 281.2 281.2 292.7 292.7 342.0 342.0 381.5 381.5 351.3 351.3 407.5 407.5 407.5 433.7 540.3 540.3 540.3 487.5 571.6 571.6 379.5 379.5 446.9 446.9 626.3 594.2 594.2 594.2 647.5 647.5 647.5 647.5 334.2 334.2 396.5 396.5 558.7 558.7 621.3 621.3 175.8 175.8 92.1 212.0 212.0 194.2 194.2 194.2 194.2 194.2 115.8 115.8 115.8 115.8 270.5 270.5 270.5 270.5 270.5 422.2 422.2 499.1 499.1 482.9 45.5 43.7 43.7 82.3 82.3 82.3 82.3 48.5 48.5 82.3 67.5 67.4 67.4 67.4 76.9 76.9 76.9 57.4 57.4 112.4 64.6 64.6 57.1 57.1 57.1 57.1 73.1 73.1 73.1 66.2 74.9 74.9 84.3 84.3 85.5 85.5 110.9 110.9 110.9 118.4 135.8 135.8 135.8 109.7 145.0 145.0 168.8 168.8 206.1 206.1 263.8 255.9 255.9 255.9 288.4 288.4 288.4 345.3 252.3 252.3 319.4 319.4 407.4 407.4 453.1 453.1 453.1 453.0 263.8 263.8 340.2 340.2 439.1 439.1 491.6 491.6 225.2 225.2 293.0 293.0 401.8 401.8 455.8 455.8 112.8 112.8 60.2 149.3 149.3 143.0 143.0 143.0 143.0 143.0 97.5 97.5 97.5 97.5 141.4 141.4 141.4 266.6 266.6 327.1 327.1 262.3 59.5 59.5 59.5 109.4 109.4 48.8 48.8 48.8 63.3 63.4 63.4 63.4 63.4 101.4 101.4 55.0 55.0 55.0 49.4 49.4 69.3 52.6 52.6 169.6 169.6 66.3 66.3 66.3 66.3 158.8 158.8 68.1 68.1 68.1 61.3 68.7 68.7 263.4 263.4 106.7 106.7 255.1 255.1 99.2 97.0 97.0 97.0 103.0 103.0 96.8 96.8 398.0 398.0 190.3 190.3 393.7 393.7 172.1 172.1 200.8 200.8 468.9 468.9 468.9 454.8 262.6 262.6 460.3 460.3 460.3 460.3 284.2 284.2 333.4 333.4 481.4 481.4 279.0 279.0 496.9 496.9 481.5 481.5 299.7 299.7 350.0 350.0 479.1 479.1 242.5 242.5 479.1 479.1 457.1 457.1 262.7 262.7 314.8 314.8 100.3 100.3 388.9 388.9 100.3 145.9 145.9 388.9 107.8 367.2 367.2 107.8 107.8 107.8 107.8 82.8 82.8 82.8 158.3 158.3 193.2 193.2 129.8 59.3 59.3 49.9 49.9 92.3 92.3 49.9 91.9 52.1 46.2 46.2 60.7 65.7 65.7 65.7 147.4 147.4 147.4 147.4 57.4 57.4 57.5 57.5 101.5 101.5 243.1 243.1 243.1 243.1 82.5 82.5 171.0 171.0 390.2 390.2 372.6 372.6 142.6 142.6 230.6 230.6 452.4 432.1 432.1 432.1 213.6 213.6 242.2 242.2 447.4 447.4 223.9 223.9 207.8 207.8 426.9 426.9 190.5 190.5 140.6 140.6 103.4 103.4 346.5 346.5 117.1 117.1 79.5 
         </DataArray>
        <DataArray type="Float32" Name="water drops AMPUA" format="ascii">
            0.0 0.0 0.0 0.0 0.0 0.0 0.0 0.0 0.0 0.0 0.0 0.0 0.0 0.0 0.0 0.0 0.0 0.0 0.0 0.0 0.0 0.0 0.0 0.0 0.0 0.0 0.0 0.0 0.0 0.0 0.0 0.0 0.0 0.0 0.0 0.0 0.0 0.0 0.0 0.0 0.0 0.0 0.0 0.0 0.0 0.0 0.0 0.0 0.0 0.0 0.0 0.0 0.0 0.0 0.0 0.0 0.0 0.0 0.0 0.0 0.0 0.0 0.0 0.0 1.4 0.0 0.0 0.0 0.0 0.0 0.0 0.0 0.0 0.0 0.0 0.0 0.0 0.0 0.0 0.0 0.0 0.0 0.0 0.0 0.0 0.0 0.0 0.0 0.0 0.0 0.0 0.0 0.0 0.0 0.0 0.0 0.0 0.0 0.0 0.0 0.0 0.0 0.0 0.0 0.0 0.0 0.0 0.0 0.0 0.0 0.0 0.0 0.0 0.0 0.0 0.0 0.0 0.0 0.0 0.0 0.0 0.0 0.0 0.0 0.0 0.0 0.0 0.0 0.0 0.0 0.0 0.0 0.0 0.0 0.0 0.0 0.0 0.0 0.0 0.0 0.0 0.0 0.0 0.0 0.0 0.0 0.0 0.0 0.0 0.0 0.0 0.0 0.0 0.0 0.0 0.0 0.0 0.0 0.0 0.0 0.0 0.0 0.0 0.0 0.0 0.0 0.0 0.0 0.0 0.0 0.0 0.0 0.0 0.0 0.0 0.0 0.0 0.0 0.0 0.0 0.0 0.0 0.0 0.0 1.6 0.0 0.0 0.0 0.0 0.0 0.0 0.0 0.0 0.0 0.0 0.0 0.0 0.0 0.0 0.0 0.0 0.0 0.0 0.0 0.0 0.0 0.0 0.0 0.0 0.0 0.0 0.0 0.0 0.0 0.0 0.0 0.0 0.0 0.0 0.0 0.0 0.0 0.0 0.0 0.0 0.0 0.0 0.0 0.0 0.0 0.0 0.0 0.0 0.0 0.0 0.0 0.0 0.0 0.0 0.0 0.0 0.0 0.0 0.0 0.0 0.0 0.0 0.0 0.0 0.0 0.0 0.0 0.0 0.0 0.0 0.0 0.0 0.0 0.0 0.0 0.0 0.0 0.0 0.0 0.0 0.0 0.0 0.0 0.0 0.0 0.0 0.0 0.0 0.0 0.0 0.0 0.0 0.0 0.0 0.0 0.0 0.0 0.0 0.0 0.0 0.0 0.0 0.0 0.0 0.0 0.0 0.0 0.0 0.0 0.3 0.0 0.0 0.0 0.0 0.0 0.0 0.0 0.0 0.0 0.0 0.0 0.0 0.0 0.0 0.0 0.0 0.0 0.0 0.0 0.0 0.0 0.0 0.0 0.0 0.0 0.0 0.0 0.0 0.0 0.0 0.0 0.0 0.0 0.0 0.0 0.0 0.0 0.0 0.0 0.0 0.0 0.0 0.0 0.0 0.0 0.0 0.0 0.0 0.0 0.0 0.0 0.0 0.0 0.0 0.0 0.0 0.0 0.0 0.0 0.0 0.0 0.0 0.0 0.0 0.0 0.0 0.0 0.0 0.0 0.0 0.0 0.0 0.0 0.0 0.0 0.0 0.0 0.0 0.0 0.0 0.0 0.0 0.0 0.0 0.0 0.0 0.0 0.0 0.0 0.0 0.0 0.0 0.0 0.0 0.0 0.0 0.0 0.0 0.0 0.0 0.0 0.0 0.0 0.0 0.0 0.0 0.0 0.0 0.0 0.0 0.0 0.0 0.0 0.0 0.0 0.0 0.0 0.0 0.0 0.0 0.0 0.0 0.0 0.0 0.0 0.0 0.0 0.0 0.0 0.0 0.0 0.0 0.0 0.0 0.0 0.0 0.0 0.0 0.0 0.0 0.0 0.0 0.0 0.0 0.0 0.0 0.0 0.0 0.0 0.0 0.0 0.0 11.8 0.0 0.0 0.0 0.0 0.0 0.0 0.0 0.0 0.0 0.0 0.0 0.0 0.0 0.0 0.0 0.0 0.0 0.0 0.0 0.0 0.0 0.0 0.0 0.0 0.0 0.0 0.0 0.0 0.0 0.0 0.0 0.0 0.0 0.0 0.0 0.0 0.0 0.0 0.0 0.0 0.0 0.0 0.0 0.0 0.0 0.0 0.0 0.0 0.0 0.0 0.0 0.0 0.0 0.0 0.0 0.0 0.0 0.0 0.0 0.0 0.0 0.0 0.0 0.0 0.0 0.0 0.0 0.0 0.0 0.0 0.0 0.0 0.0 0.0 0.0 0.0 0.0 0.0 0.0 0.0 0.0 0.0 0.0 0.0 0.0 0.0 0.0 0.0 0.0 0.0 0.0 0.0 0.0 0.0 0.0 0.0 0.0 0.0 0.0 0.0 0.0 0.0 0.0 0.0 0.0 0.0 0.0 0.0 0.0 0.0 0.0 0.0 0.0 0.0 0.0 0.0 0.0 0.0 0.0 0.0 0.0 0.0 0.0 0.0 0.0 0.0 0.0 0.0 0.0 0.0 0.0 0.0 0.0 0.0 0.0 0.0 0.0 0.0 0.0 0.0 0.0 0.0 0.0 0.0 0.0 0.0 0.0 0.0 0.0 0.0 0.0 0.0 0.0 0.0 0.0 0.0 0.0 0.0 0.0 0.0 0.0 0.0 0.0 0.0 0.0 0.0 0.0 0.0 0.0 0.0 0.0 0.0 0.0 0.0 0.0 0.0 0.0 0.0 0.0 0.0 0.0 0.0 0.0 0.0 0.0 0.0 0.0 0.0 0.0 0.0 0.0 0.0 0.0 0.0 0.0 0.0 0.0 0.0 0.0 0.0 0.0 0.0 0.0 0.0 0.0 0.0 0.0 0.0 0.0 0.0 0.0 0.0 0.0 0.0 0.0 0.0 0.0 0.0 0.0 0.0 0.0 0.0 0.0 0.0 0.0 0.0 0.0 0.0 0.0 0.0 0.0 0.0 0.0 0.0 0.0 0.0 0.0 0.0 0.0 0.0 0.0 0.0 0.0 0.0 0.0 0.0 0.0 0.0 0.0 0.0 0.0 0.0 
         </DataArray>
        <DataArray type="Float32" Name="GAS TEMPERATURE" format="ascii">
            26.5 26.5 26.5 28.3 28.3 28.3 28.3 28.3 28.3 30.5 30.5 32.6 32.6 32.6 32.6 45.6 45.6 43.8 43.8 43.8 43.8 225.1 225.1 105.9 105.9 105.9 105.9 361.4 361.4 253.3 253.3 253.3 253.3 364.4 364.4 527.7 527.7 527.7 527.7 527.7 527.7 372.2 372.2 372.2 372.2 460.9 460.9 460.9 460.9 460.9 460.9 460.9 460.9 78.0 78.0 78.0 170.3 170.3 170.3 170.3 170.3 170.3 170.3 170.3 26.1 26.1 26.1 29.7 29.7 29.7 29.7 29.7 32.8 32.8 32.8 32.8 32.8 28.9 28.9 28.9 28.9 28.9 28.9 28.9 28.9 30.1 30.1 30.5 30.5 37.1 37.1 37.1 37.1 37.1 37.1 37.1 37.1 40.2 40.2 45.6 45.6 68.5 68.5 68.5 68.5 68.5 68.5 68.5 68.5 166.5 166.5 225.1 225.1 90.2 90.2 90.2 90.2 90.2 90.2 90.2 90.2 90.2 90.2 302.4 302.4 361.4 361.4 229.2 229.2 229.2 229.2 229.2 229.2 229.2 229.2 277.0 277.0 277.0 277.0 364.4 364.4 364.4 364.4 422.3 422.3 422.3 422.3 422.3 422.3 422.3 422.3 292.4 292.4 372.2 372.2 372.2 372.2 438.4 438.4 438.4 438.4 438.4 438.4 92.5 92.5 92.5 109.3 109.3 109.3 109.3 109.3 174.5 174.5 174.5 174.5 174.5 220.9 220.9 220.9 220.9 220.9 220.9 220.9 220.9 27.9 27.9 27.9 27.8 27.8 27.8 27.8 27.8 26.6 26.6 26.6 26.6 29.7 29.7 29.7 29.7 29.7 29.7 29.7 28.3 28.3 28.3 28.3 28.3 32.0 32.0 30.1 30.1 36.4 36.4 36.4 36.4 40.4 40.4 40.2 40.2 54.7 54.7 54.7 54.7 93.7 93.7 166.5 166.5 81.7 81.7 81.7 81.7 257.7 257.7 257.7 257.7 302.4 302.4 302.4 302.4 169.7 169.7 169.7 169.7 237.9 237.9 277.0 277.0 277.0 277.0 260.6 260.6 260.6 260.6 260.6 260.6 253.1 253.1 292.4 292.4 397.9 397.9 397.9 397.9 397.9 397.9 397.9 397.9 113.2 113.2 113.2 115.6 115.6 115.6 115.6 115.6 99.3 99.3 99.3 99.3 165.1 165.1 165.1 165.1 165.1 165.1 165.1 258.7 258.7 258.7 258.7 258.7 258.7 258.7 26.7 26.7 26.7 26.7 26.7 26.7 26.7 26.7 26.7 26.7 26.4 26.4 26.4 26.4 25.9 25.9 25.9 25.9 25.9 25.9 25.9 27.2 27.2 27.2 33.9 33.9 32.0 32.0 32.1 32.1 32.1 32.1 50.0 50.0 50.0 50.0 40.4 40.4 40.4 40.4 35.2 35.2 35.2 35.2 91.5 91.5 93.7 93.7 93.7 93.7 54.6 54.6 54.6 54.6 191.8 191.8 257.7 257.7 257.7 257.7 127.9 127.9 127.9 127.9 127.9 127.9 185.3 185.3 237.9 237.9 236.9 236.9 236.9 236.9 236.9 236.9 236.9 236.9 220.1 220.1 253.1 253.1 305.1 305.1 305.1 305.1 123.4 123.4 123.4 108.6 108.6 108.6 108.6 108.6 108.6 108.6 88.8 88.8 88.8 88.8 92.6 92.6 92.6 92.6 92.6 92.6 92.6 128.7 128.7 128.7 28.1 28.1 28.1 27.2 27.2 27.2 27.2 27.2 27.2 27.2 25.9 25.9 25.9 25.9 25.5 25.5 25.5 25.5 25.5 25.3 25.3 25.3 31.1 31.1 31.1 31.1 33.9 33.9 33.9 33.9 27.4 27.4 27.4 27.4 41.6 41.6 50.0 50.0 50.0 50.0 33.7 33.7 33.7 33.7 33.7 33.7 95.1 95.1 91.5 91.5 52.9 52.9 52.9 52.9 52.9 52.9 52.9 52.9 139.7 139.7 191.8 191.8 99.8 99.8 99.8 99.8 99.8 99.8 140.7 140.7 185.3 185.3 230.4 230.4 230.4 230.4 186.0 186.0 220.1 220.1 199.5 199.5 199.5 199.5 113.6 113.6 113.6 129.2 129.2 129.2 129.2 129.2 129.2 129.2 83.5 83.5 83.5 83.5 64.6 64.6 64.6 64.6 64.6 64.7 64.7 64.7 27.4 27.4 27.4 27.4 27.4 27.4 27.4 27.4 27.2 27.2 27.2 27.2 27.2 27.2 27.2 26.4 26.4 26.4 26.4 26.4 25.1 25.1 25.1 31.9 31.9 31.9 31.9 31.9 31.9 48.5 48.5 30.3 30.3 30.3 30.3 30.3 30.3 37.9 37.9 37.9 37.9 70.8 70.8 74.7 74.7 74.7 74.7 74.7 74.7 74.7 74.7 63.5 63.5 63.5 63.5 94.7 94.7 121.6 121.6 121.6 121.6 93.9 93.9 93.9 93.9 93.9 93.9 141.2 141.2 141.2 141.2 130.8 130.8 130.8 130.8 115.4 115.4 115.4 115.4 115.4 115.4 192.4 192.4 208.4 208.4 208.4 208.4 165.4 165.4 165.4 165.4 165.4 165.4 146.7 146.7 157.3 157.3 157.3 157.3 93.5 93.5 93.5 93.5 93.5 93.5 93.5 93.5 119.2 119.2 119.2 119.2 119.2 119.2 119.2 64.7 64.7 64.7 64.7 64.7 51.2 51.2 51.2 27.5 27.5 27.5 27.5 27.5 27.5 27.5 27.5 28.1 28.1 28.1 48.5 48.5 48.5 48.5 48.5 48.5 48.5 48.5 34.5 34.5 34.5 34.5 70.8 70.8 70.8 70.8 70.8 70.8 64.5 64.5 94.7 94.7 94.7 94.7 94.7 94.7 147.8 147.8 141.2 141.2 141.2 141.2 141.2 141.2 189.1 189.1 192.4 192.4 192.4 192.4 216.3 216.3 146.7 146.7 146.7 146.7 154.9 154.9 99.3 99.3 99.3 99.3 99.3 99.3 68.9 68.9 68.9 
         </DataArray>
        <DataArray type="Float32" Name="HRRPUA" format="ascii">
            0.0 0.0 0.0 0.0 0.0 0.0 0.0 0.0 0.0 0.0 0.0 0.0 0.0 0.0 0.0 0.0 0.0 0.0 0.0 0.0 0.0 0.0 0.0 0.0 0.0 0.0 0.0 0.0 0.0 0.0 0.0 0.0 0.0 0.0 0.0 0.0 0.0 0.0 0.0 0.0 0.0 0.0 0.0 0.0 0.0 0.0 0.0 0.0 0.0 0.0 0.0 0.0 0.0 0.0 0.0 0.0 0.0 0.0 0.0 0.0 0.0 0.0 0.0 0.0 0.0 0.0 0.0 0.0 0.0 0.0 0.0 0.0 0.0 0.0 0.0 0.0 0.0 0.0 0.0 0.0 0.0 0.0 0.0 0.0 0.0 0.0 0.0 0.0 0.0 0.0 0.0 0.0 0.0 0.0 0.0 0.0 0.0 0.0 0.0 0.0 0.0 0.0 0.0 0.0 0.0 0.0 0.0 0.0 0.0 0.0 0.0 0.0 0.0 0.0 0.0 0.0 0.0 0.0 0.0 0.0 0.0 0.0 0.0 0.0 0.0 0.0 0.0 0.0 0.0 0.0 0.0 0.0 0.0 0.0 0.0 0.0 0.0 0.0 0.0 0.0 0.0 0.0 0.0 0.0 0.0 0.0 0.0 0.0 0.0 0.0 0.0 0.0 0.0 0.0 0.0 0.0 0.0 0.0 0.0 0.0 0.0 0.0 0.0 0.0 0.0 0.0 0.0 0.0 0.0 0.0 0.0 0.0 0.0 0.0 0.0 0.0 0.0 0.0 0.0 0.0 0.0 0.0 0.0 0.0 0.0 0.0 0.0 0.0 0.0 0.0 0.0 0.0 0.0 0.0 0.0 0.0 0.0 0.0 0.0 0.0 0.0 0.0 0.0 0.0 0.0 0.0 0.0 0.0 0.0 0.0 0.0 0.0 0.0 0.0 0.0 0.0 0.0 0.0 0.0 0.0 0.0 0.0 0.0 0.0 0.0 0.0 0.0 0.0 0.0 0.0 0.0 0.0 0.0 0.0 0.0 0.0 0.0 0.0 0.0 0.0 0.0 0.0 0.0 0.0 0.0 0.0 0.0 0.0 0.0 0.0 0.0 0.0 0.0 0.0 0.0 0.0 0.0 0.0 0.0 0.0 0.0 0.0 0.0 0.0 0.0 0.0 0.0 0.0 0.0 0.0 0.0 0.0 0.0 0.0 0.0 0.0 0.0 0.0 0.0 0.0 0.0 0.0 0.0 0.0 0.0 0.0 0.0 0.0 0.0 0.0 0.0 0.0 0.0 0.0 0.0 0.0 0.0 0.0 0.0 0.0 0.0 0.0 0.0 0.0 0.0 0.0 0.0 0.0 0.0 0.0 0.0 0.0 0.0 0.0 0.0 0.0 0.0 0.0 0.0 0.0 0.0 0.0 0.0 0.0 0.0 0.0 0.0 0.0 0.0 0.0 0.0 0.0 0.0 0.0 0.0 0.0 0.0 0.0 0.0 0.0 0.0 0.0 0.0 0.0 0.0 0.0 0.0 0.0 0.0 0.0 0.0 0.0 0.0 0.0 0.0 0.0 0.0 0.0 0.0 0.0 0.0 0.0 0.0 0.0 0.0 0.0 0.0 0.0 0.0 0.0 0.0 0.0 0.0 0.0 0.0 0.0 0.0 0.0 0.0 0.0 0.0 0.0 0.0 0.0 0.0 0.0 0.0 0.0 0.0 0.0 0.0 0.0 0.0 0.0 0.0 0.0 0.0 0.0 0.0 0.0 0.0 0.0 0.0 0.0 0.0 0.0 0.0 0.0 0.0 0.0 0.0 0.0 0.0 0.0 0.0 0.0 0.0 0.0 0.0 0.0 0.0 0.0 0.0 0.0 0.0 0.0 0.0 0.0 0.0 0.0 0.0 0.0 0.0 0.0 0.0 0.0 0.0 0.0 0.0 0.0 0.0 0.0 0.0 0.0 0.0 0.0 0.0 0.0 0.0 0.0 0.0 0.0 0.0 0.0 0.0 0.0 0.0 0.0 0.0 0.0 0.0 0.0 0.0 0.0 0.0 0.0 0.0 0.0 0.0 0.0 0.0 0.0 0.0 0.0 0.0 0.0 0.0 0.0 0.0 0.0 0.0 0.0 0.0 0.0 0.0 0.0 0.0 0.0 0.0 0.0 0.0 0.0 0.0 0.0 0.0 0.0 0.0 0.0 0.0 0.0 0.0 0.0 0.0 0.0 0.0 0.0 0.0 0.0 0.0 0.0 0.0 0.0 0.0 0.0 0.0 0.0 0.0 0.0 0.0 0.0 0.0 0.0 0.0 0.0 0.0 0.0 0.0 0.0 0.0 0.0 0.0 0.0 0.0 0.0 0.0 0.0 0.0 0.0 0.0 0.0 0.0 0.0 0.0 0.0 0.0 0.0 0.0 0.0 0.0 0.0 0.0 0.0 0.0 0.0 0.0 0.0 0.0 0.0 0.0 0.0 0.0 0.0 0.0 0.0 0.0 0.0 0.0 0.0 0.0 0.0 0.0 0.0 0.0 0.0 0.0 0.0 0.0 0.0 0.0 0.0 0.0 0.0 0.0 0.0 0.0 0.0 0.0 0.0 0.0 0.0 0.0 0.0 0.0 0.0 0.0 0.0 0.0 0.0 0.0 0.0 0.0 0.0 0.0 0.0 0.0 0.0 0.0 0.0 0.0 0.0 0.0 0.0 0.0 0.0 0.0 0.0 0.0 0.0 0.0 0.0 0.0 0.0 0.0 0.0 0.0 0.0 0.0 0.0 0.0 0.0 0.0 0.0 0.0 0.0 0.0 0.0 0.0 0.0 0.0 0.0 0.0 0.0 0.0 0.0 0.0 0.0 0.0 0.0 0.0 0.0 0.0 0.0 0.0 0.0 0.0 0.0 0.0 0.0 0.0 0.0 0.0 0.0 0.0 0.0 0.0 0.0 0.0 0.0 0.0 0.0 0.0 0.0 0.0 0.0 0.0 0.0 0.0 0.0 0.0 0.0 0.0 0.0 0.0 0.0 0.0 0.0 0.0 0.0 0.0 0.0 0.0 0.0 0.0 0.0 0.0 0.0 0.0 0.0 0.0 0.0 
         </DataArray>
    </CellData>
    <Polys>
        <DataArray type="Int32" Name="connectivity" format="ascii">