<?xml version="1.0"?>
<VTKFile type="PolyData" version="1.0" byte_order="LittleEndian" header_type="UInt64">
<PolyData>
<Piece NumberOfPoints="36" NumberOfVerts="0" NumberOfLines="0" NumberOfPolys="0">
    <Points>
        <DataArray type="Float32" NumberOfComponents="3" format="ascii">
        16.7884 15.7804 8.3940 16.9094 15.7574 8.3940 16.7194 15.7237 8.3940 15.8746 15.6551 8.3940 15.7726 15.6149 8.3940 16.1334 15.6181 8.3940 17.5977 15.5523 8.3940 17.7508 15.4562 8.3940 17.0461 15.4561 8.3940 16.1846 15.4539 8.3940 17.3923 15.4387 8.3940 17.3172 15.4190 8.3940 15.8904 15.4137 8.3940 16.3336 15.4219 8.3940 17.3360 15.3855 8.3940 16.4430 15.2986 8.3940 16.7372 15.3995 8.3940 18.0039 15.3304 8.3940 17.7008 15.3258 8.3940 15.6561 15.3309 8.3940 17.4417 15.3215 8.3940 17.0256 15.3224 8.3940 16.8636 15.3032 8.3940 18.1674 15.2580 8.3940 15.4350 15.2620 8.3940 17.1603 15.2956 8.3940 16.6360 15.2895 8.3940 15.7991 15.2749 8.3940 17.0751 15.2768 8.3940 17.0419 15.2807 8.3940 16.7995 15.2362 8.3940 17.2554 15.2340 8.3940 16.2515 15.2340 8.3940 16.8205 15.2286 8.3940 16.1605 15.2096 8.3940 17.1312 15.2070 8.3940 
        </DataArray>
    </Points>
    <PointData>
        <DataArray type="Float32" Name="tag" format="ascii">
            72307.0000 77383.0000 71579.0000 77399.0000 49155.0000 88727.0000 85251.0000 81735.0000 100479.0000 107555.0000 72331.0000 96679.0000 104935.0000 105603.0000 107423.0000 117311.0000 108255.0000 79967.0000 103019.0000 95295.0000 113487.0000 85955.0000 124183.0000 88559.0000 82543.0000 86979.0000 125603.0000 103031.0000 96571.0000 114927.0000 112647.0000 109119.0000 108451.0000 124747.0000 123131.0000 122503.0000 
         </DataArray>
    </PointData>
</Piece>
</PolyData>
</VTKFile>