<?xml version="1.0"?>
<VTKFile type="PolyData" version="1.0" byte_order="LittleEndian" header_type="UInt64">
<PolyData>
<Piece NumberOfPoints="1065" NumberOfVerts="0" NumberOfLines="0" NumberOfPolys="0">
    <Points>
        <DataArray type="Float32" NumberOfComponents="3" format="ascii">
        16.8285 11.8090 4.3786 16.5954 12.3133 4.6117 15.3597 5.7017 6.6585 16.9911 10.8534 4.2160 16.0315 8.2323 5.2641 16.7104 11.6961 4.4967 16.6239 10.4736 4.5832 16.6876 9.8432 3.4335 16.3764 8.2257 4.5478 17.1756 10.9694 4.0315 17.3420 11.5977 3.8651 16.4094 7.9156 5.1695 16.7049 11.4927 4.5022 16.6112 12.0454 4.5959 17.2092 10.7971 3.9979 16.6314 10.4211 4.5757 16.8098 10.0000 4.1995 17.2487 11.4673 3.9584 15.8480 9.0338 5.0943 17.1086 7.4944 5.2914 16.7495 7.1112 5.2457 17.2320 10.6403 3.9751 16.7254 8.0678 4.7653 17.4272 11.6436 3.7799 17.1018 7.6083 5.1232 17.5811 10.9405 3.6260 16.9360 7.8878 5.1930 16.8812 10.7533 4.3259 16.2769 6.5154 6.3606 17.1090 7.5794 5.3248 16.7157 6.7675 5.4942 16.6258 7.8209 4.9022 17.0293 11.0138 4.1778 16.9787 10.3841 4.2284 17.1681 11.3958 4.0390 16.6567 12.0296 4.5504 17.0774 11.6778 4.1297 15.8452 6.5099 6.1527 17.3484 11.6954 3.8587 17.3523 11.5002 3.8548 17.0602 7.2977 5.4270 16.6815 7.1543 5.7720 16.7570 12.6750 4.4501 17.0707 10.6691 4.1364 16.9772 10.7172 4.2299 16.0705 6.8514 6.0299 17.3087 11.3442 3.8984 16.1559 8.0693 5.7264 16.6244 12.5097 4.5827 17.0404 11.2595 4.1667 16.7214 12.2763 4.4857 16.8722 11.4091 4.3349 16.8198 11.3775 4.3873 16.8820 6.8248 5.6026 16.6406 9.5777 3.7433 16.7268 11.8496 4.4803 17.3089 11.3436 3.8982 16.6218 6.6326 6.0103 16.6826 12.3879 4.5245 16.7935 11.4619 4.4136 16.9667 11.6011 4.2404 16.6088 7.4878 5.4197 16.6133 11.8788 4.5938 16.8620 11.6021 4.3451 16.6375 12.5410 4.5697 17.1086 11.3823 4.0985 16.6289 7.7533 5.1949 16.3065 9.7444 4.4260 17.3107 10.9569 3.8964 16.0961 8.0523 5.9181 16.5709 7.1723 5.3832 16.5433 7.5067 5.7733 16.6307 11.4671 4.5764 15.9452 8.1747 5.8724 17.0406 11.5779 4.1665 16.8336 12.3552 4.3735 16.9239 10.0000 3.2088 16.5470 12.5673 4.6601 16.6728 11.5216 4.5343 16.8348 11.5240 4.3723 16.7581 7.1113 5.5636 16.9539 7.3034 5.2904 16.6100 9.6480 4.1702 16.8324 6.7713 5.5980 16.6379 12.5526 4.5692 16.8770 11.7614 4.3301 17.1248 11.7207 4.0823 16.8352 11.9193 4.3719 17.2857 10.6759 3.9214 17.4206 11.2057 3.7865 17.2518 10.6253 3.9553 16.5325 11.9905 4.6747 16.7177 9.5968 3.5373 16.6293 12.2916 4.5778 17.3580 11.0829 3.8492 17.0045 6.2915 6.1730 16.7804 7.0185 5.4142 16.7994 9.8993 3.6022 16.6652 6.6699 5.8622 16.7862 9.9544 4.4209 16.6570 12.6728 4.5501 16.8685 9.9571 3.3088 17.0672 11.5708 4.1399 17.2800 10.6017 3.9271 16.9422 11.1138 4.2649 15.4986 8.1688 6.5198 16.7894 12.4755 4.4177 17.2795 11.7551 3.9276 16.8446 10.0000 3.2228 16.5464 7.9027 5.6743 17.6323 10.9840 3.5748 16.3679 6.8790 6.1371 17.0149 11.4858 4.1922 16.7225 11.5462 4.4846 16.5698 12.1927 4.6373 16.9378 6.8400 5.6632 17.2903 10.7221 3.9168 16.6440 6.7576 5.6164 16.1559 6.4826 6.5225 16.1999 4.1646 7.3147 16.0485 6.2133 6.8286 16.4051 12.2802 4.8020 17.4465 11.1277 3.7606 16.5259 12.0104 4.6812 16.7821 6.2876 6.0535 16.7342 7.3211 5.8020 16.3435 7.3418 6.2689 16.4162 9.5331 4.5715 16.7693 12.7970 4.4378 16.5948 12.2167 4.6123 15.8302 8.8076 5.9015 17.1850 10.9168 4.0221 16.9198 11.6123 4.2873 17.0177 11.4118 4.1894 16.6337 12.2530 4.5734 16.5971 3.5598 7.8047 16.7164 12.3634 4.4907 16.7025 12.1338 4.5046 16.8594 11.4152 4.3477 16.5830 11.6140 4.6241 15.4094 8.8477 6.1499 16.9400 6.8499 6.0602 16.9772 11.8200 4.2299 16.7508 12.7299 4.4563 16.0297 9.2926 4.4966 17.1020 10.7750 4.1051 15.7049 7.4121 7.1619 16.9991 11.5921 4.2080 16.6113 11.7851 4.5958 16.6159 12.2832 4.5912 16.6530 12.0711 4.5541 17.3487 11.5866 3.8584 17.1394 11.8198 4.0677 17.1085 10.4958 4.0986 16.2119 9.7112 4.9117 17.3223 10.8178 3.8848 16.4583 12.2295 4.7488 17.1652 10.7594 4.0419 16.0248 8.4188 5.8212 16.3196 3.6550 7.5673 16.9603 11.4103 4.2468 16.6767 11.9913 4.5304 16.6560 12.0602 4.5511 16.5848 12.0525 4.6223 16.8532 11.6823 4.3539 17.2003 11.4981 4.0068 16.1052 9.2723 5.2078 16.5197 11.9665 4.6874 16.6318 12.1396 4.5753 17.0725 11.2524 4.1346 15.1400 8.1360 6.8877 16.4937 11.8899 4.7135 16.7390 6.4456 6.6461 17.1816 10.8873 4.0255 17.4040 11.7003 3.8031 17.0155 11.7293 4.1916 16.8211 11.6621 4.3860 16.7210 11.6809 4.4861 17.1817 10.4161 4.0254 17.0502 5.7264 6.9546 16.5621 6.7826 6.4658 17.4611 11.8882 3.7460 16.7222 12.4489 4.4849 16.7440 9.8435 4.1503 16.5697 12.5967 4.6374 16.7804 4.7381 7.0331 17.0532 10.5293 4.1539 16.7096 12.6986 4.4975 16.6005 12.2975 4.6066 16.8562 11.6405 4.3509 16.6740 9.8582 4.1033 17.0032 10.3772 4.2039 15.5854 4.2501 7.8755 16.7297 11.9092 4.4774 17.2412 10.6585 3.9883 16.8683 5.8586 7.0297 17.1662 10.5063 4.0409 16.7228 11.8447 4.4843 16.6743 12.6972 4.5328 17.0355 10.3075 4.1716 16.4789 11.8141 4.7282 17.4380 10.3675 4.7645 17.0743 11.3054 4.1328 15.3901 7.6076 7.2844 17.3478 10.6904 3.8593 15.9436 8.7159 6.1147 17.4091 11.6301 3.7980 16.7971 12.5299 4.4100 17.5820 10.9908 3.6252 17.2371 11.2571 3.9700 17.1044 10.1555 4.4851 16.5603 12.4940 4.6469 16.4970 9.8875 4.5369 16.4720 6.4665 7.1540 16.6722 11.7284 4.5349 16.9071 11.7043 4.3000 17.1858 11.6384 4.0213 17.5188 10.5815 4.7801 16.5907 10.0574 4.7687 16.4588 9.8080 4.8723 17.0326 11.5117 4.1745 16.4816 6.1709 7.1741 16.4064 12.3801 4.8007 16.0742 9.8741 4.8942 16.9944 10.3841 4.2127 16.7589 11.8484 4.4482 15.8909 9.2725 5.4622 17.2505 10.5962 3.9566 17.2530 11.5347 3.9541 16.6985 12.6631 4.5086 15.0423 7.3767 7.2312 17.3254 11.5737 3.8817 17.4961 10.4230 4.9110 17.1900 10.5890 4.0172 16.5573 11.8724 4.6498 16.7814 11.9327 4.4257 16.4777 12.7494 4.7294 16.6268 12.3506 4.5803 17.4452 11.2630 3.7619 15.9068 9.9225 5.2468 16.6120 12.4952 4.5951 15.9593 8.9759 5.9545 17.1647 11.5952 4.0424 16.9628 11.7283 4.2443 16.2589 10.1109 4.9483 17.2811 11.1909 3.9260 15.0705 7.7131 6.9825 15.0094 8.8894 6.9111 15.9764 10.1236 5.2096 17.3420 10.0443 5.2372 17.1964 11.2516 4.0107 17.4705 11.2658 3.7366 17.2356 11.5755 3.9715 16.5717 12.3231 4.6354 16.9681 11.6045 4.2390 15.4028 9.2128 6.1826 17.0805 11.2962 4.1266 15.1034 9.2484 6.8646 16.4420 12.1446 4.7651 17.3266 11.6336 3.8805 16.1760 9.7591 5.3879 17.5134 11.2869 3.6937 17.0306 11.2948 4.1765 16.6491 12.5254 4.5580 17.3101 11.3859 3.8970 15.7509 9.0675 5.9293 16.5064 12.1098 4.7007 15.3986 8.5850 6.8135 16.9744 11.1890 4.2327 17.4244 10.3950 5.2828 16.7162 11.6226 4.4909 15.4497 8.9585 6.4392 15.6126 6.7205 7.7346 15.5949 9.4725 5.8447 15.5396 9.0285 6.1836 17.2347 11.8685 3.9724 15.9989 9.7985 5.5707 16.1984 9.5872 5.4945 16.9889 11.3279 4.2182 17.0023 11.8663 4.2048 16.4840 11.9924 4.7231 15.2571 9.3414 6.5476 17.3833 11.8470 3.8238 16.7338 11.4616 4.4733 16.4296 9.8013 5.2821 16.5070 11.8579 4.7001 16.4961 12.3578 4.7110 17.4649 11.5963 3.7422 17.2954 10.5285 3.9117 15.8814 9.9600 5.5828 17.5197 11.0602 3.6874 16.1368 9.8149 5.4704 17.3869 10.7544 3.9799 17.4207 10.4290 4.9201 16.8735 11.6968 4.3336 16.8675 11.7127 4.3396 17.4216 10.8925 3.7855 17.5595 11.8586 3.6476 16.4688 12.9753 4.7383 16.7474 12.6025 4.4597 17.1063 11.4219 4.1009 17.3222 11.4858 3.8849 16.3565 12.1398 4.8506 17.1394 11.7711 4.0677 17.3728 11.4253 3.8343 17.2223 10.9115 3.9848 17.5071 10.6988 4.3871 17.3334 11.2117 3.8737 17.7191 10.8820 4.9223 16.5535 11.7226 4.6536 16.6553 11.5766 4.5518 15.9174 9.9050 5.5803 17.4473 11.7147 3.7598 17.1940 11.8878 4.0131 16.5571 9.8629 5.1909 15.7952 9.8755 5.7463 16.5938 9.9146 5.0348 15.4780 8.6431 6.7492 15.9251 9.7052 5.6958 17.4120 10.7827 3.7951 16.3023 9.3762 5.5117 16.5244 12.5400 4.6827 16.6808 12.7698 4.5263 16.1955 9.4236 5.4377 17.1646 10.9290 4.0425 15.2987 8.3894 7.1594 17.2151 11.9897 3.9920 16.5933 11.9534 4.6138 16.9637 9.0522 6.9716 15.3621 8.6817 6.9330 16.6608 11.8108 4.5463 16.3735 11.8276 4.8336 17.4751 10.7743 3.7320 17.3431 11.2476 3.8640 17.2641 9.8477 6.0478 16.8675 11.5148 4.3396 16.6659 11.7028 4.5412 16.6168 12.5159 4.5903 17.4410 11.0431 3.7661 16.9508 10.0338 4.8183 17.2277 10.3931 4.4563 17.3683 10.2521 5.2891 17.0781 10.9204 4.1290 16.1162 9.3266 5.6957 16.3413 12.8198 4.8658 16.8111 11.7894 4.3960 17.5639 10.1247 5.5301 15.4925 9.3161 6.1724 16.8111 11.9396 4.3960 17.4516 11.7010 3.7555 17.0988 9.9235 5.1814 16.4286 12.3782 4.7785 17.6930 10.5363 5.3515 17.2181 10.9436 3.9890 15.5430 6.8797 7.8290 16.7747 9.4568 5.6587 17.1761 10.4887 4.1729 16.9954 11.5559 4.2117 16.6093 9.8024 5.1954 17.1862 10.9964 4.1553 15.8261 9.5364 5.8471 17.0134 11.1692 4.1937 16.4515 9.4962 5.5292 15.8538 9.4297 5.8890 16.9021 9.8756 4.8142 15.9517 9.3750 5.9088 17.4062 9.4554 6.7670 17.2259 11.6879 3.9812 16.4020 9.0735 6.1500 16.6797 12.7050 4.5274 16.4709 12.1135 4.7362 16.7129 12.8845 4.4942 17.4712 10.4204 5.4320 17.0824 11.6560 4.1247 16.3713 12.5914 4.8358 17.1992 11.3709 4.0079 17.5919 10.9732 3.6152 17.4996 11.6627 3.7075 17.0225 11.1006 4.1846 17.1245 10.7642 4.8943 16.6098 12.2102 4.5973 16.7550 13.0282 4.4521 17.2344 11.8628 3.9727 15.5876 9.0125 6.3964 17.0435 10.9788 4.1636 17.0367 10.1657 4.8165 16.3049 9.4310 5.5616 16.3491 12.8950 4.8580 16.6594 11.6610 4.5477 16.9509 11.2439 4.2562 16.3961 12.3668 4.8110 16.7892 12.8991 4.4179 16.4745 11.7024 4.7326 17.3397 10.3716 5.7772 16.4619 12.7078 4.7452 15.3043 9.2572 6.7441 16.5673 12.4793 4.6398 17.6792 11.1461 4.2322 16.9697 11.5027 4.2374 15.9951 8.9709 6.4005 16.7621 9.0911 6.4683 17.3423 11.9993 3.8649 17.5703 10.7600 4.4118 16.4792 9.4133 5.6278 16.9122 11.5094 4.2949 17.0835 11.2056 4.1236 16.3083 9.0322 5.9888 17.0693 11.4364 4.1378 16.9398 11.4131 4.2673 16.7284 11.7362 4.4787 17.3916 11.5271 3.8155 17.0937 11.7689 4.1134 17.1680 9.6014 5.8123 17.5086 11.8798 3.6985 17.2786 10.4614 4.9051 16.4756 11.8786 4.7315 16.9727 11.7430 4.2344 17.3409 10.4409 5.0897 16.8581 12.6804 4.3490 16.5610 12.5275 4.6461 16.8834 11.2348 4.3237 17.2815 11.5048 3.9256 16.4176 9.1091 6.0358 16.9095 12.1634 4.2976 16.8815 11.5379 4.3256 17.5431 10.5335 4.9993 16.9067 11.5845 4.3004 17.3917 1
[...]
    <PointData>
        <DataArray type="Float32" Name="tag" format="ascii">
            63.0000 95.0000 131.0000 207.0000 219.0000 287.0000 299.0000 351.0000 379.0000 383.0000 419.0000 455.0000 491.0000 515.0000 627.0000 739.0000 935.0000 1003.0000 1023.0000 1099.0000 1119.0000 1131.0000 1171.0000 1187.0000 1211.0000 1307.0000 1551.0000 1567.0000 1791.0000 1803.0000 1855.0000 1859.0000 1883.0000 1907.0000 1927.0000 1963.0000 1991.0000 2035.0000 2063.0000 2075.0000 2083.0000 2191.0000 2311.0000 2391.0000 2475.0000 2491.0000 2563.0000 2623.0000 2711.0000 2767.0000 2807.0000 2959.0000 3023.0000 3087.0000 3091.0000 3167.0000 3195.0000 3271.0000 3319.0000 3323.0000 3375.0000 3423.0000 3463.0000 3495.0000 3531.0000 3567.0000 3607.0000 3663.0000 3711.0000 3775.0000 3795.0000 3819.0000 3839.0000 3883.0000 3903.0000 3927.0000 3943.0000 3967.0000 3983.0000 4015.0000 4067.0000 4127.0000 4183.0000 4187.0000 4231.0000 4247.0000 4271.0000 4291.0000 4395.0000 4403.0000 4415.0000 4463.0000 4515.0000 4519.0000 4551.0000 4555.0000 4583.0000 4615.0000 4643.0000 4751.0000 4767.0000 4843.0000 4851.0000 4891.0000 4899.0000 4947.0000 4971.0000 4995.0000 5015.0000 5035.0000 5107.0000 5115.0000 5139.0000 5227.0000 5255.0000 5271.0000 5299.0000 5455.0000 5643.0000 5655.0000 5703.0000 5739.0000 5767.0000 5799.0000 5815.0000 5867.0000 5891.0000 6055.0000 6095.0000 6123.0000 6207.0000 6275.0000 6367.0000 6411.0000 6427.0000 6431.0000 6507.0000 6539.0000 6559.0000 6627.0000 6663.0000 6671.0000 6691.0000 6767.0000 6795.0000 6851.0000 6911.0000 6927.0000 6943.0000 7063.0000 7075.0000 7111.0000 7143.0000 7147.0000 7175.0000 7183.0000 7231.0000 7427.0000 7495.0000 7575.0000 7579.0000 7587.0000 7683.0000 7743.0000 7747.0000 7767.0000 7783.0000 7803.0000 7819.0000 7867.0000 7883.0000 7903.0000 7919.0000 7983.0000 8043.0000 8075.0000 8179.0000 8187.0000 8199.0000 8263.0000 8291.0000 8315.0000 8319.0000 8367.0000 8571.0000 8603.0000 8615.0000 8675.0000 8679.0000 8723.0000 8803.0000 8815.0000 8903.0000 8931.0000 9019.0000 9027.0000 9039.0000 9183.0000 9187.0000 9255.0000 9267.0000 9295.0000 9379.0000 9407.0000 9459.0000 9471.0000 9555.0000 9567.0000 9639.0000 9695.0000 9751.0000 9775.0000 9799.0000 9963.0000 9995.0000 10003.0000 10063.0000 10131.0000 10155.0000 10279.0000 10303.0000 10311.0000 10355.0000 10419.0000 10495.0000 10499.0000 10515.0000 10531.0000 10583.0000 10599.0000 10611.0000 10675.0000 10691.0000 10763.0000 10803.0000 10867.0000 10931.0000 10951.0000 11015.0000 11051.0000 11131.0000 11283.0000 11307.0000 11327.0000 11351.0000 11367.0000 11427.0000 11435.0000 11439.0000 11471.0000 11551.0000 11567.0000 11691.0000 11743.0000 11751.0000 11759.0000 11807.0000 11855.0000 11903.0000 11931.0000 12011.0000 12027.0000 12127.0000 12135.0000 12143.0000 12171.0000 12195.0000 12211.0000 12219.0000 12239.0000 12275.0000 12279.0000 12283.0000 12303.0000 12359.0000 12383.0000 12395.0000 12411.0000 12427.0000 12459.0000 12499.0000 12631.0000 12651.0000 20727.0000 12719.0000 12731.0000 12755.0000 12919.0000 12939.0000 13023.0000 13075.0000 13083.0000 13119.0000 13179.0000 13231.0000 13395.0000 13415.0000 13463.0000 13615.0000 13639.0000 13647.0000 13671.0000 13687.0000 13727.0000 13771.0000 13775.0000 13787.0000 13811.0000 13847.0000 13851.0000 13871.0000 13875.0000 13887.0000 14051.0000 14087.0000 14151.0000 14179.0000 14215.0000 14255.0000 14295.0000 14327.0000 14375.0000 14471.0000 14491.0000 14555.0000 14587.0000 14603.0000 14611.0000 14615.0000 14763.0000 14807.0000 14827.0000 14899.0000 14903.0000 14911.0000 14939.0000 14959.0000 14971.0000 15039.0000 15083.0000 15279.0000 15283.0000 15399.0000 15407.0000 15427.0000 15455.0000 15567.0000 15575.0000 15647.0000 15659.0000 15671.0000 15683.0000 15695.0000 15783.0000 15847.0000 15923.0000 15935.0000 15951.0000 15971.0000 16007.0000 16031.0000 16087.0000 16099.0000 16135.0000 16147.0000 16187.0000 16327.0000 16367.0000 16387.0000 16407.0000 16475.0000 16523.0000 16539.0000 16623.0000 16635.0000 16643.0000 16703.0000 16767.0000 16807.0000 16811.0000 16851.0000 16875.0000 16979.0000 17007.0000 17103.0000 17231.0000 17235.0000 17363.0000 17371.0000 17375.0000 17387.0000 17443.0000 17467.0000 17555.0000 17559.0000 17567.0000 17631.0000 17651.0000 17667.0000 17795.0000 17819.0000 17879.0000 17903.0000 17919.0000 17931.0000 17947.0000 17955.0000 17987.0000 18027.0000 18127.0000 18187.0000 18203.0000 18279.0000 18435.0000 18511.0000 18523.0000 18707.0000 18763.0000 18883.0000 19027.0000 19115.0000 19135.0000 19143.0000 19187.0000 19219.0000 19231.0000 19303.0000 19347.0000 19387.0000 19395.0000 19403.0000 19467.0000 19491.0000 19547.0000 19587.0000 19755.0000 19923.0000 20015.0000 20191.0000 20203.0000 20267.0000 20295.0000 20315.0000 20319.0000 20359.0000 20367.0000 20519.0000 20575.0000 20707.0000 20767.0000 20831.0000 20895.0000 20955.0000 21071.0000 21147.0000 21239.0000 21303.0000 21319.0000 21323.0000 21355.0000 21383.0000 21439.0000 21447.0000 21615.0000 21671.0000 21715.0000 21719.0000 21759.0000 21819.0000 21919.0000 21995.0000 22067.0000 22071.0000 22107.0000 22139.0000 22167.0000 22203.0000 22311.0000 22319.0000 22339.0000 22403.0000 22467.0000 22515.0000 22595.0000 22627.0000 22815.0000 22835.0000 22887.0000 22899.0000 23071.0000 23079.0000 23239.0000 23255.0000 23279.0000 23315.0000 23339.0000 23355.0000 23367.0000 23371.0000 23607.0000 23623.0000 23731.0000 23747.0000 23755.0000 23779.0000 23783.0000 23847.0000 23855.0000 23859.0000 23899.0000 23943.0000 23951.0000 23995.0000 24011.0000 24079.0000 24091.0000 24127.0000 24131.0000 24135.0000 24151.0000 24191.0000 24223.0000 24247.0000 24307.0000 24335.0000 24367.0000 24379.0000 24403.0000 24415.0000 24431.0000 24463.0000 24467.0000 24555.0000 24635.0000 24655.0000 24699.0000 24707.0000 24743.0000 24783.0000 24791.0000 24847.0000 24899.0000 24939.0000 24943.0000 25011.0000 25035.0000 25071.0000 25135.0000 25151.0000 25227.0000 25243.0000 25259.0000 25263.0000 25287.0000 25303.0000 25403.0000 25435.0000 25579.0000 25603.0000 25623.0000 25639.0000 25655.0000 25659.0000 25675.0000 25739.0000 25751.0000 25755.0000 25775.0000 25823.0000 25835.0000 25855.0000 25859.0000 25971.0000 25999.0000 26039.0000 26051.0000 26087.0000 26151.0000 26175.0000 26187.0000 26207.0000 26223.0000 26259.0000 26323.0000 26375.0000 26471.0000 26495.0000 26507.0000 26599.0000 26651.0000 26747.0000 26751.0000 46911.0000 40343.0000 26815.0000 26867.0000 26875.0000 26879.0000 26959.0000 26983.0000 26995.0000 27055.0000 27071.0000 27083.0000 27091.0000 27135.0000 27227.0000 27231.0000 27291.0000 27319.0000 27327.0000 27351.0000 27387.0000 27499.0000 27527.0000 27535.0000 27587.0000 27635.0000 27723.0000 27735.0000 27767.0000 27967.0000 27991.0000 28031.0000 28095.0000 28103.0000 28151.0000 28199.0000 28203.0000 28207.0000 28219.0000 28231.0000 28295.0000 28323.0000 28351.0000 28451.0000 28467.0000 28471.0000 28479.0000 28503.0000 28523.0000 28535.0000 28551.0000 28619.0000 28627.0000 28675.0000 28779.0000 28843.0000 28875.0000 28883.0000 28923.0000 28935.0000 28959.0000 29019.0000 29159.0000 29239.0000 29267.0000 29319.0000 29407.0000 29439.0000 29511.0000 29539.0000 29571.0000 29579.0000 29635.0000 29639.0000 29691.0000 29719.0000 29823.0000 29875.0000 29895.0000 29951.0000 29991.0000 30023.0000 30075.0000 30087.0000 30127.0000 30251.0000 30283.0000 30303.0000 30379.0000 30395.0000 30583.0000 30627.0000 30655.0000 30823.0000 30827.0000 30863.0000 30895.0000 30963.0000 31099.0000 31115.0000 31167.0000 31199.0000 31219.0000 31235.0000 31247.0000 31287.0000 31427.0000 31607.0000 31619.0000 31631.0000 31639.0000 31671.0000 31679.0000 31723.0000 31731.0000 31759.0000 31763.0000 31771.0000 31855.0000 31879.0000 31915.0000 31943.0000 31951.0000 31967.0000 31979.0000 32063.0000 32091.0000 32111.0000 32163.0000 32199.0000 32255.0000 32335.0000 32479.0000 32511.0000 32547.0000 32567.0000 32587.0000 32607.0000 32611.0000 32667.0000 32779.0000 32795.0000 32851.0000 32859.0000 32895.0000 32943.0000 32947.0000 32979.0000 33031.0000 33063.0000 33079.0000 33091.0000 33103.0000 33107.0000 33151.0000 33283.0000 33343.0000 33351.0000 33411.0000 33435.0000 33499.0000 33563.0000 33571.0000 33583.0000 33599.0000 33843.0000 33867.0000 33891.0000 33903.0000 33911.0000 33943.0000 34087.0000 34103.0000 34115.0000 34135.0000 34167.0000 34183.0000 34291.0000 34295.0000 34331.0000 34423.0000 34543.0000 34571.0000 34631.0000 34675.0000 34687.0000 34791.0000 34859.0000 34935.0000 34975.0000 35111.0000 35187.0000 35219.0000 35239.0000 35271.0000 35311.0000 35359.0000 35367.0000 35383.0000 35399.0000 35487.0000 35495.0000 35535.0000 35659.0000 35675.0000 35715.0000 35779.0000 35803.0000 35855.0000 35959.0000 35963.0000 35995.0000 36071.0000 36087.0000 36135.0000 36223.0000 36235.0000 36331.0000 36359.0000 36403.0000 36435.0000 36495.0000 36535.0000 36539.0000 36547.0000 36599.0000 36615.0000 36691.0000 36699.0000 36711.0000 36723.0000 36791.0000 36795.0000 36803.0000 36887.0000 36919.0000 36923.0000 36935.0000 36947.0000 36959.0000 37043.0000 37151.0000 37171.0000 37263.0000 37327.0000 37363.0000 37387.0000 37503.0000 37555.0000 37583.0000 37631.0000 37647.0000 37679.0000 37699.0000 37731.0000 37735.0000 37759.0000 37831.0000 37843.0000 37987.0000 38003.0000 38107.0000 38127.0000 38183.0000 38203.0000 38219.0000 38247.0000 38359.0000 38395.0000 38399.0000 38419.0000 38451.0000 38455.0000 38479.0000 38487.0000 38491.0000 38523.0000 38535.0000 38583.0000 38591.0000 38627.0000 38711.0000 38735.0000 38755.0000 38775.0000 38779.0000 38879.0000 38887.0000 38927.0000 38935.0000 38959.0000 38995.0000 39019.0000 39063.0000 39147.0000 39155.0000 39163.0000 39283.0000 39331.0000 39383.0000 39407.0000 39415.0000 39447.0000 39495.0000 39535.0000 39567.0000 39575.0000 39651.0000 39655.0000 39659.0000 39691.0000 39699.0000 39843.0000 39903.0000 39907.0000 39943.0000 39963.0000 40103.0000 40119.0000 40191.0000 40211.0000 40263.0000 40323.0000 40331.0000 40335.0000 40363.0000 40375.0000 40399.0000 40439.0000 40535.0000 40551.0000 40663.0000 40675.0000 40703.0000 40711.0000 40727.0000 40747.0000 40855.0000 40963.0000 41095.0000 41147.0000 41155.0000 41183.0000 41231.0000 41359.0000 41367.0000 41391.0000 41447.0000 41467.0000 41479.0000 41499.0000 41515.0000 41551.0000 41567.0000 41699.0000 41727.0000 41751.0000 41883.0000 41887.0000 41895.0000 41907.0000 41939.0000 41951.0000 41959.0000 42015.0000 42099.0000 42139.0000 42215.0000 42219.0000 42223.0000 42327.0000 42351.0000 42375.0000 42403.0000 42419.0000 42491.0000 42719.0000 42815.0000 42875.0000 42915.0000 42923.0000 42963.0000 42967.0000 43031.0000 43043.0000 43115.0000 43187.0000 43203.0000 43239.0000 43311.0000 43347.0000 43351.0000 43367.0000 43411.0000 43467.0000 43479.0000 43483.0000 43535.0000 43607.0000 43647.0000 43815.0000 43867.0000 43903.0000 43959.0000 43991.0000 44003.0000 44151.0000 44159.0000 44211.0000 44219.0000 44311.0000 44331.0000 44371.0000 44391.0000 44471.0000 44487.0000 44539.0000 44627.0000 44851.0000 44899.0000 44927.0000 45039.0000 45131.0000 45135.0000 45231.0000 45287.0000 45315.0000 45339.0000 45371.0000 45395.0000 45571.0000 45595.0000 45611.0000 45619.0000 45711.0000 45715.0000 45723.0000 45727.0000 45779.0000 45823.0000 45827.0000 45859.0000 45875.0000 45887.0000 45931.0000 45963.0000 45999.0000 46031.0000 46091.0000 46115.0000 46239.0000 46275.0000 46291.0000 46347.0000 46351.0000 46363.0000 46443.0000 46491.0000 46535.0000 46607.0000 46623.0000 46627.0000 46671.0000 46683.0000 46687.0000 46715.0000 46735.0000 46743.0000 46763.0000 46803.0000 46883.0000 46887.0000 46895.0000 
         </DataArray>
    </PointData>
</Piece>
</PolyData>
</VTKFile>