<?xml version="1.0"?>
<VTKFile type="RectilinearGrid" version="1.0" byte_order="LittleEndian" header_type="UInt64">
<RectilinearGrid WholeExtent="25 50 0 25 0 15">
<Piece Extent="25 50 0 25 0 15">
<Coordinates>
<DataArray type="Float64" Name="Array X-Axis" format="ascii" RangeMin="15.0" RangeMax="30.0">
15.0 15.6 16.2 16.8 17.4 18.0 18.6 19.2 19.8 20.4 21.0 21.6 22.2 22.8 23.4 24.0 24.6 25.2 25.8 26.4 27.0 27.6 28.2 28.8 29.4 30.0 
</DataArray>
<DataArray type="Float64" Name="Array Y-Axis" format="ascii" RangeMin="0.0" RangeMax="15.0">
0.0 0.6 1.2 1.8 2.4 3.0 3.6 4.2 4.8 5.4 6.0 6.6 7.2 7.8 8.4 9.0 9.6 10.2 10.8 11.4 12.0 12.6 13.2 13.8 14.4 15.0 
</DataArray>
<DataArray type="Float64" Name="Array Z-Axis" format="ascii" RangeMin="0.0" RangeMax="9.0">
0.0 0.6 1.2 1.8 2.4 3.0 3.6 4.2 4.8 5.4 6.0 6.6 7.2 7.8 8.4 9.0 
</DataArray>
</Coordinates>
<PointData>
<DataArray Name="TEMPERATURE" NumberOfComponents="1" type="Float64" format="ascii">
20.0 20.0 20.0 20.0 20.0 20.0 20.0 20.0 20.0 20.0 20.0 20.0 20.0 20.0 20.0 20.0 20.0 20.0 20.0 20.0 20.1 20.1 20.1 20.1 20.1 20.1 20.1 20.1 20.1 20.1 20.1 20.1 20.1 20.1 20.1 20.1 20.1 20.1 20.1 20.1 20.1 20.1 20.1 20.1 20.1 20.1 20.1 20.1 20.1 20.1 20.1 20.1 20.1 20.1 20.1 20.1 20.1 20.1 20.1 20.1 20.2 20.2 20.2 20.2 20.2 20.2 20.2 20.2 20.2 20.2 20.2 20.2 20.2 20.2 20.2 20.2 20.1 20.1 20.2 20.2 20.2 20.3 20.3 20.2 20.2 20.3 20.3 20.3 20.3 20.3 20.3 20.3 20.3 20.3 20.3 20.3 20.3 20.3 20.3 20.3 20.2 20.2 20.1 20.1 20.3 20.4 20.4 20.4 20.4 20.4 20.4 20.4 20.5 20.5 20.5 20.4 20.4 20.4 20.4 20.4 20.4 20.4 20.4 20.4 20.3 20.3 20.3 20.2 20.1 20.1 20.5 20.5 20.5 20.6 20.6 20.6 20.6 20.6 20.7 20.7 20.6 20.6 20.6 20.5 20.5 20.5 20.5 20.5 20.4 20.4 20.4 20.3 20.3 20.2 20.1 20.1 20.6 20.6 20.7 20.8 20.8 20.8 20.8 20.8 20.9 20.9 20.8 20.7 20.7 20.7 20.6 20.6 20.6 20.5 20.5 20.4 20.4 20.4 20.3 20.2 20.1 20.0 20.7 20.8 20.8 20.9 21.0 21.0 21.0 21.0 21.1 21.0 20.9 20.8 20.8 20.8 20.7 20.7 20.6 20.6 20.5 20.5 20.5 20.4 20.3 20.2 20.1 20.0 20.8 20.9 21.0 21.1 21.1 21.1 21.2 21.2 21.2 21.2 21.0 20.9 20.9 20.9 20.8 20.8 20.7 20.6 20.6 20.5 20.5 20.4 20.3 20.2 20.1 20.0 20.9 21.0 21.1 21.2 21.3 21.4 21.4 21.4 21.4 21.3 21.2 21.1 21.0 21.0 20.9 20.8 20.8 20.7 20.7 20.6 20.5 20.5 20.3 20.2 20.1 20.0 21.0 21.1 21.2 21.4 21.5 21.6 21.7 21.7 21.6 21.5 21.3 21.2 21.2 21.1 21.0 20.9 20.9 20.8 20.7 20.7 20.6 20.5 20.3 20.2 20.1 20.0 21.2 21.3 21.4 21.6 21.8 21.9 21.9 22.0 21.9 21.7 21.5 21.4 21.3 21.3 21.2 21.1 21.0 20.9 20.8 20.7 20.6 20.5 20.3 20.2 20.1 20.0 21.3 21.5 21.6 21.8 22.0 22.2 22.3 22.3 22.1 21.9 21.8 21.6 21.5 21.4 21.3 21.2 21.1 21.0 20.9 20.8 20.7 20.5 20.3 20.2 20.1 20.0 21.5 21.7 21.9 22.1 22.4 22.6 22.8 22.8 22.5 22.2 22.0 21.9 21.7 21.6 21.4 21.3 21.2 21.1 21.0 20.8 20.7 20.5 20.3 20.2 20.1 20.0 21.7 21.9 22.1 22.4 22.7 23.1 23.3 23.3 22.9 22.6 22.3 22.1 22.0 21.8 21.6 21.4 21.3 21.2 21.0 20.9 20.7 20.5 20.3 20.2 20.1 20.0 22.0 22.2 22.5 22.8 23.2 23.7 24.0 23.8 23.3 23.0 22.7 22.4 22.2 22.0 21.8 21.6 21.4 21.2 21.1 20.9 20.7 20.5 20.3 20.2 20.1 20.1 22.3 22.6 22.9 23.2 23.7 24.3 24.7 24.4 23.9 23.4 23.1 22.8 22.5 22.2 21.9 21.7 21.5 21.3 21.1 20.9 20.7 20.5 20.3 20.2 20.1 20.1 22.6 23.0 23.4 24.4 25.0 25.9 26.6 26.2 25.3 24.1 23.6 23.2 22.8 22.4 22.1 21.8 21.6 21.4 21.2 21.0 20.8 20.5 20.4 20.2 20.1 20.1 23.0 23.4 24.0 25.8 27.0 28.9 29.8 28.6 26.9 24.9 24.1 23.6 23.1 22.7 22.3 22.1 21.8 21.6 21.3 21.1 20.8 20.6 20.4 20.2 20.1 20.1 23.7 24.3 25.0 27.5 31.5 40.0 43.8 39.1 33.4 27.5 25.0 24.4 23.7 23.1 22.7 22.4 22.1 21.8 21.5 21.2 20.9 20.6 20.4 20.3 20.1 20.1 24.6 25.5 26.3 29.8 34.7 49.4 56.1 44.0 35.7 29.2 26.2 25.3 24.3 23.6 23.1 22.6 22.2 21.8 21.5 21.2 20.8 20.6 20.4 20.2 20.1 20.1 25.1 26.2 27.1 31.2 34.5 20.0 20.0 34.0 31.9 28.7 27.0 25.7 24.6 23.8 23.2 22.7 22.2 21.8 21.5 21.1 20.8 20.6 20.4 20.2 20.1 20.1 25.1 26.0 28.0 32.4 35.5 20.0 20.0 33.6 31.3 28.3 26.8 25.4 24.5 23.8 23.1 22.6 22.2 21.8 21.5 21.1 20.8 20.5 20.4 20.2 20.1 20.1 24.4 25.3 27.8 31.7 33.6 32.9 31.5 30.6 29.1 26.8 25.7 24.6 24.0 23.5 22.9 22.4 22.2 21.8 21.5 21.1 20.8 20.6 20.4 20.3 20.1 20.1 23.5 24.3 25.7 27.6 29.3 30.1 29.7 28.1 26.4 25.2 24.6 23.9 23.4 23.0 22.5 22.2 21.9 21.7 21.4 21.1 20.8 20.6 20.4 20.3 20.1 20.1 22.3 23.5 24.2 24.8 25.8 26.8 27.1 26.4 25.2 24.3 23.8 23.3 22.9 22.5 22.2 21.9 21.7 21.4 21.2 21.0 20.8 20.6 20.4 20.2 20.1 20.1 20.0 20.0 20.0 20.0 20.0 20.0 20.0 20.0 20.0 20.0 20.0 20.0 20.0 20.0 20.0 20.0 20.0 20.0 20.0 20.0 20.0 20.1 20.1 20.1 20.1 20.1 20.1 20.1 20.1 20.1 20.1 20.1 20.1 20.1 20.1 20.1 20.1 20.1 20.1 20.1 20.1 20.1 20.1 20.1 20.1 20.1 20.1 20.1 20.1 20.1 20.1 20.1 20.1 20.1 20.1 20.1 20.1 20.1 20.1 20.1 20.2 20.2 20.2 20.2 20.1 20.1 20.2 20.2 20.2 20.2 20.2 20.2 20.2 20.2 20.2 20.2 20.1 20.1 20.2 20.2 20.2 20.2 20.3 20.2 20.2 20.3 20.3 20.3 20.3 20.3 20.3 20.3 20.3 20.3 20.3 20.3 20.3 20.3 20.3 20.2 20.2 20.2 20.1 20.1 20.3 20.3 20.4 20.4 20.4 20.4 20.4 20.4 20.5 20.5 20.5 20.4 20.4 20.4 20.4 20.4 20.4 20.4 20.3 20.3 20.3 20.3 20.2 20.2 20.1 20.1 20.4 20.5 20.5 20.6 20.6 20.6 20.6 20.6 20.7 20.7 20.6 20.6 20.5 20.5 20.5 20.5 20.5 20.4 20.4 20.4 20.3 20.3 20.3 20.2 20.1 20.1 20.5 20.6 20.7 20.7 20.8 20.8 20.8 20.8 20.9 20.8 20.8 20.7 20.6 20.6 20.6 20.6 20.5 20.5 20.4 20.4 20.4 20.3 20.3 20.2 20.1 20.0 20.6 20.7 20.8 20.9 20.9 20.9 21.0 21.0 21.0 21.0 20.9 20.8 20.7 20.7 20.7 20.6 20.6 20.5 20.5 20.4 20.4 20.4 20.3 20.2 20.1 20.0 20.7 20.8 20.9 21.0 21.1 21.1 21.2 21.2 21.2 21.1 21.0 20.9 20.9 20.8 20.8 20.7 20.7 20.6 20.5 20.5 20.5 20.4 20.3 20.2 20.1 20.0 20.9 21.0 21.1 21.2 21.3 21.4 21.4 21.4 21.4 21.3 21.1 21.0 21.0 20.9 20.9 20.8 20.7 20.7 20.6 20.6 20.5 20.4 20.3 20.2 20.1 20.0 21.0 21.1 21.2 21.4 21.5 21.6 21.7 21.7 21.6 21.5 21.3 21.2 21.1 21.1 21.0 20.9 20.8 20.7 20.7 20.6 20.5 20.4 20.3 20.2 20.1 20.0 21.1 21.3 21.4 21.6 21.8 21.9 22.0 22.0 21.9 21.7 21.5 21.4 21.3 21.2 21.1 21.0 20.9 20.8 20.8 20.7 20.6 20.5 20.3 20.2 20.1 20.0 21.3 21.5 21.7 21.9 22.1 22.3 22.4 22.4 22.2 22.0 21.8 21.6 21.5 21.4 21.3 21.1 21.0 20.9 20.8 20.7 20.6 20.5 20.3 20.2 20.1 20.0 21.5 21.7 21.9 22.2 22.5 22.7 22.9 22.9 22.6 22.3 22.1 21.9 21.7 21.6 21.4 21.3 21.1 21.0 20.9 20.8 20.6 20.5 20.3 20.2 20.1 20.0 21.8 22.0 22.3 22.6 22.9 23.3 23.5 23.4 23.0 22.7 22.4 22.2 22.0 21.8 21.6 21.4 21.3 21.1 21.0 20.8 20.7 20.5 20.3 20.2 20.1 20.0 22.0 22.3 22.7 23.1 23.5 23.9 24.2 24.0 23.5 23.1 22.8 22.5 22.3 22.0 21.8 21.6 21.4 21.2 21.0 20.9 20.7 20.5 20.3 20.2 20.1 20.0 22.4 22.7 23.1 23.7 24.2 24.7 25.1 24.9 24.2 23.7 23.3 22.9 22.6 22.3 22.0 21.7 21.5 21.3 21.1 20.9 20.7 20.5 20.3 20.2 20.1 20.1 22.7 23.2 23.9 25.8 26.7 27.0 27.6 26.9 25.6 24.4 23.8 23.3 22.9 22.5 22.2 21.9 21.6 21.4 21.2 21.0 20.8 20.5 20.4 20.2 20.1 20.1 23.2 23.7 24.8 29.6 32.6 32.7 32.2 29.5 27.3 25.4 24.4 23.8 23.3 22.8 22.4 22.1 21.8 21.6 21.3 21.1 20.8 20.6 20.4 20.2 20.1 20.1 23.8 24.5 25.9 33.1 42.6 52.7 50.9 39.5 33.0 27.6 25.3 24.6 23.9 23.3 22.8 22.4 22.1 21.8 21.5 21.2 20.9 20.6 20.4 20.2 20.1 20.1 24.7 25.7 27.4 35.0 61.1 147.2 151.0 64.7 36.8 29.2 26.5 25.5 24.5 23.7 23.2 22.7 22.3 21.9 21.5 21.2 20.9 20.6 20.4 20.2 20.1 20.1 25.5 26.8 28.6 40.4 122.1 365.2 315.7 82.8 36.6 29.9 27.5 26.1 24.9 24.1 23.3 22.8 22.3 21.9 21.5 21.1 20.8 20.6 20.4 20.2 20.1 20.1 25.5 26.9 29.9 43.8 129.1 300.8 260.1 105.7 46.6 30.1 27.4 25.8 24.7 24.0 23.2 22.7 22.3 21.9 21.5 21.1 20.8 20.6 20.4 20.2 20.1 20.1 24.6 25.8 28.9 36.6 59.5 83.4 94.3 76.9 42.7 27.9 26.1 25.0 24.1 23.6 23.0 22.5 22.2 21.8 21.5 21.2 20.8 20.6 20.4 20.2 20.1 20.1 23.7 24.5 25.9 28.5 31.3 33.2 33.6 31.4 27.9 25.6 24.8 24.1 23.5 23.0 22.6 22.2 22.0 21.7 21.4 21.1 20.8 20.6 20.4 20.2 20.1 20.1 22.5 23.8 24.5 25.3 26.4 27.9 28.2 27.0 25.6 24.7 24.1 23.5 23.0 22.6 22.2 21.9 21.7 21.5 21.2 21.0 20.8 20.5 20.4 20.2 20.1 20.1 20.0 20.0 20.0 20.0 20.0 20.0 20.0 20.0 20.0 20.0 20.0 20.0 20.0 20.0 20.0 20.0 20.0 20.0 20.0 20.0 20.0 20.0 20.1 20.1 20.1 20.1 20.0 20.0 20.1 20.1 20.1 20.1 20.1 20.1 20.1 20.1 20.1 20.1 20.1 20.1 20.1 20.1 20.1 20.1 20.1 20.1 20.1 20.1 20.1 20.1 20.1 20.1 20.1 20.1 20.1 20.1 20.1 20.1 20.1 20.1 20.1 20.2 20.2 20.1 20.1 20.1 20.1 20.1 20.1 20.2 20.2 20.2 20.2 20.1 20.1 20.1 20.1 20.1 20.2 20.2 20.2 20.2 20.2 20.2 20.2 20.2 20.3 20.3 20.3 20.3 20.2 20.2 20.2 20.2 20.2 20.2 20.2 20.2 20.2 20.2 20.2 20.1 20.1 20.1 20.3 20.3 20.3 20.4 20.4 20.4 20.4 20.4 20.4 20.4 20.4 20.4 20.4 20.3 20.3 20.3 20.3 20.3 20.3 20.3 20.2 20.2 20.2 20.2 20.1 20.1 20.4 20.4 20.5 20.5 20.6 20.6 20.6 20.6 20.6 20.6 20.6 20.5 20.5 20.4 20.4 20.4 20.4 20.4 20.3 20.3 20.3 20.2 20.2 20.2 20.1 20.0 20.5 20.5 20.6 20.7 20.7 20.7 20.7 20.8 20.8 20.8 20.7 20.6 20.6 20.5 20.5 20.5 20.4 20.4 20.4 20.3 20.3 20.3 20.2 20.2 20.1 20.0 20.6 20.7 20.7 20.8 20.9 20.9 20.9 21.0 21.0 20.9 20.8 20.7 20.7 20.6 20.6 20.5 20.5 20.5 20.4 20.4 20.3 20.3 20.2 20.2 20.1 20.0 20.7 20.8 20.9 21.0 21.1 21.1 21.2 21.2 21.2 21.1 21.0 20.8 20.8 20.7 20.7 20.6 20.6 20.5 20.5 20.4 20.4 20.3 20.3 20.2 20.1 20.0 20.8 20.9 21.0 21.2 21.3 21.4 21.4 21.5 21.4 21.3 21.1 21.0 20.9 20.9 20.8 20.7 20.7 20.6 20.5 20.5 20.4 20.4 20.3 20.2 20.1 20.0 21.0 21.1 21.2 21.4 21.5 21.7 21.7 21.8 21.6 21.5 21.3 21.2 21.1 21.0 20.9 20.8 20.7 20.7 20.6 20.5 20.5 20.4 20.3 20.2 20.1 20.0 21.1 21.3 21.4 21.7 21.9 22.0 22.1 22.1 22.0 21.7 21.5 21.4 21.3 21.2 21.1 21.0 20.8 20.8 20.7 20.6 20.5 20.4 20.3 20.2 20.1 20.0 21.3 21.5 21.7 22.0 22.3 22.5 22.6 22.6 22.3 22.1 21.8 21.7 21.5 21.4 21.2 21.1 21.0 20.8 20.8 20.7 20.6 20.4 20.3 20.2 20.1 20.0 21.5 21.8 22.0 22.4 22.7 23.0 23.2 23.1 22.8 22.4 22.2 22.0 21.8 21.6 21.4 21.2 21.1 21.0 20.8 20.7 20.6 20.4 20.3 20.2 20.1 20.0 21.8 22.1 22.4 22.9 23.3 23.7 24.0 23.8 23.3 22.9 22.6 22.3 22.1 21.8 21.6 21.4 21.2 21.1 20.9 20.8 20.6 20.5 20.3 20.2 20.1 20.0 22.1 22.5 23.0 23.6 24.0 24.6 24.9 24.6 24.0 23.5 23.1 22.7 22.4 22.1 21.8 21.6 21.3 21.2 21.0 20.8 20.6 20.5 20.3 20.2 20.1 20.0 22.5 23.0 23.7 24.5 25.3 26.5 28.1 27.2 25.0 24.2 23.7 23.2 22.8 22.4 22.0 21.7 21.5 21.3 21.1 20.9 20.7 20.5 20.3 20.2 20.1 20.0 23.0 23.6 24.7 27.6 29.5 30.4 32.9 32.0 27.8 25.2 24.3 23.7 23.2 22.7 22.3 21.9 21.6 21.4 21.2 21.0 20.7 20.5 20.3 20.2 20.1 20.1 23.5 24.3 26.0 34.3 44.7 46.0 43.3 40.5 34.4 28.0 25.1 24.3 23.7 23.1 22.6 22.2 21.9 21.6 21.3 21.1 20.8 20.6 20.4 20.2 20.1 20.1 24.2 25.3 27.8 49.3 90.1 118.2 114.6 83.6 48.6 30.3 26.1 25.1 24.3 23.6 23.0 22.5 22.1 21.8 21.5 21.2 20.9 20.6 20.4 20.2 20.1 20.1 25.2 27.4 31.9 68.4 156.8 273.8 285.7 174.8 74.4 31.3 27.4 26.1 25.0 24.2 23.4 22.9 22.4 22.0 21.6 21.2 20.9 20.6 20.4 20.2 20.1 20.1 26.1 29.8 36.4 81.2 225.3 406.6 385.8 209.2 85.5 34.7 28.8 27.0 25.6 24.6 23.7 23.0 22.5 22.0 21.6 21.2 20.9 20.6 20.4 20.2 20.1 20.1 26.3 29.6 36.6 75.0 205.1 332.4 305.9 178.9 74.3 34.5 28.7 26.8 25.4 24.4 23.6 23.0 22.4 22.0 21.6 21.2 20.9 20.6 20.4 20.2 20.1 20.1 25.2 27.3 33.5 54.1 102.0 139.2 143.1 104.9 49.9 29.5 27.0 25.7 24.6 23.9 23.3 22.7 22.3 21.9 21.5 21.2 20.9 20.6 20.4 20.2 20.1 20.1 24.2 25.3 29.1 36.5 43.2 45.6 42.6 35.4 29.4 26.6 25.6 24.6 23.9 23.3 22.8 22.4 22.0 21.7 21.4 21.1 20.8 20.6 20.4 20.2 20.1 20.1 22.8 24.3 25.7 27.5 29.5 31.4 30.8 28.2 26.5 25.5 24.7 24.0 23.4 22.8 22.4 22.0 21.7 21.5 21.2 21.0 20.7 20.5 20.3 20.2 20.1 20.1 20.0 20.0 20.0 20.0 20.0 20.0 20.0 20.0 20.0 20.0 20.0 20.0 20.0 20.0 20.0 20.0 20.0 20.0 20.0 20.0 20.0 20.0 20.1 20.1 20.1 20.1 20.0 20.0 20.1 20.1 20.1 20.1 20.1 20.1 20.1 20.1 20.1 20.1 20.1 20.1 20.1 20.1 20.1 20.1 20.1 20.1 20.1 20.1 20.1 20.1 20.1 20.1 20.1 20.1 20.1 20.1 20.1 20.1 20.1 20.1 20.2 20.2 20.2 20.1 20.1 20.1 20.1 20.1 20.1 20.1 20.1 20.1 20.1 20.1 20.1 20.1 20.1 20.1 20.2 20.2 20.2 20.2 20.3 20.2 20.2 20.3 20.3 20.3 20.3 20.3 20.2 20.2 20.2 20.2 20.2 20.2 20.2 20.2 20.2 20.2 20.2 20.1 20.1 20.1 20.3 20.3 20.4 20.4 20.4 20.4 20.4 20.4 20.5 20.5 20.4 20.4 20.4 20.3 20.3 20.3 20.3 20.3 20.3 20.2 20.2 20.2 20.2 20.1 20.1 20.0 20.4 20.4 20.5 20.5 20.6 20.6 20.6 20.6 20.6 20.6 20.6 20.5 20.5 20.4 20.4 20.4 20.4 20.3 20.3 20.3 20.2 20.2 20.2 20.1 20.1 20.0 20.5 20.6 20.6 20.7 20.7 20.7 20.8 20.8 20.8 20.8 20.7 20.6 20.6 20.5 20.5 20.5 20.4 20.4 20.3 20.3 20.3 20.2 20.2 20.2 20.1 20.0 20.6 20.7 20.8 20.8 20.9 20.9 21.0 21.0 21.0 20.9 20.8 20.7 20.7 20.6 20.6 20.5 20.5 20.4 20.4 20.4 20.3 20.3 20.2 20.2 20.1 20.0 20.7 20.8 20.9 21.0 21.1 21.1 21.2 21.2 21.2 21.1 21.0 20.9 20.8 20.7 20.7 20.6 20.6 20.5 20.4 20.4 20.4 20.3 20.2 20.2 20.1 20.0 20.8 20.9 21.1 21.2 21.3 21.4 21.5 21.5 21.4 21.3 21.1 21.0 20.9 20.9 20.8 20.7 20.6 20.6 20.5 20.5 20.4 20.3 20.3 20.2 20.1 20.0 21.0 21.1 21.2 21.4 21.6 21.7 21.8 21.8 21.7 21.5 21.3 21.2 21.1 21.0 20.9 20.8 20.7 20.7 20.6 20.5 20.4 20.4 20.3 20.2 20.1 20.0 21.1 21.3 21.5 21.7 21.9 22.1 22.2 22.2 22.0 21.8 21.6 21.4 21.3 21.2 21.1 21.0 20.8 20.7 20.7 20.6 20.5 20.4 20.3 20.2 20.1 20.0 21.3 21.5 21.8 22.1 22.3 22.6 22.8 22.7 22.4 22.1 21.9 21.7 21.6 21.4 21.2 21.1 21.0 20.8 20.7 20.6 20.5 20.4 20.3 20.2 20.1 20.0 21.6 21.8 22.1 22.5 22.9 23.1 23.4 23.4 22.9 22.6 22.3 22.1 21.8 21.6 21.4 21.3 21.1 20.9 20.8 20.7 20.6 20.4 20.3 20.2 20.1 20.0 21.8 22.1 22.5 23.0 23.5 23.9 24.2 24.1 23.6 23.1 22.7 22.4 22.2 21.9 21.7 21.4 21.2 21.1 20.9 20.8 20.6 20.5 20.3 20.2 20.1 20.0 22.2 22.6 23.3 23.8 24.2 24.9 25.5 25.2 24.4 23.8 23.3 22.9 22.5 22.2 21.9 21.6 21.4 21.2 21.0 20.8 20.6 20.5 20.3 20.2 20.1 20.0 22.5 23.1 24.2 25.2 25.7 27.6 30.9 29.8 26.0 24.6 24.0 23.4 23.0 22.5 22.1 21.8 21.5 21.3 21.1 20.9 20.7 20.5 20.3 20.2 20.1 20.0 23.0 23.7 25.5 27.9 29.9 34.8 40.8 39.7 31.6 26.0 24.8 24.1 23.4 22.9 22.4 22.0 21.7 21.4 21.2 21.0 20.8 20.5 20.3 20.2 20.1 20.0 23.7 25.0 27.6 34.4 49.6 63.9 68.6 63.2 46.0 30.5 25.8 24.8 24.0 23.3 22.8 22.3 21.9 21.6 21.4 21.1 20.8 20.6 20.4 20.2 20.1 20.1 24.6 27.3 33.5 63.0 126.2 184.5 201.7 145.5 66.8 34.4 27.1 25.7 24.8 23.9 23.2 22.7 22.2 21.9 21.5 21.2 20.9 20.6 20.4 20.2 20.1 20.1 26.1 33.6 56.1 128.4 247.9 350.2 379.7 264.0 99.8 35.9 28.8 27.0 25.7 24.6 23.7 23.1 22.5 22.0 21.6 21.3 20.9 20.6 20.4 20.2 20.1 20.1 28.5 39.9 71.3 165.4 315.0 427.9 439.3 311.9 130.3 42.4 30.6 28.0 26.3 25.0 24.0 23.2 22.6 22.1 21.7 21.3 20.9 20.6 20.4 20.2 20.1 20.1 28.3 37.8 68.0 147.3 265.1 340.0 328.8 225.3 99.6 42.3 30.3 27.7 26.2 24.9 23.9 23.2 22.6 22.1 21.6 21.3 20.9 20.6 20.4 20.2 20.1 20.1 25.7 31.0 57.8 112.2 164.3 177.8 153.2 95.7 46.3 32.8 28.1 26.4 25.3 24.3 23.5 22.9 22.4 22.0 21.6 21.2 20.9 20.6 20.4 20.2 20.1 20.1 24.5 26.4 39.3 69.0 88.3 80.8 59.2 39.1 30.3 27.6 26.3 25.2 24.3 23.6 23.0 22.5 22.1 21.8 21.5 21.2 20.9 20.6 20.4 20.2 20.1 20.1 23.0 24.8 28.0 37.2 43.5 39.7 33.9 29.8 27.4 26.2 25.3 24.4 23.7 23.1 22.6 22.1 21.8 21.5 21.2 21.0 20.8 20.5 20.3 20.2 20.1 20.1 20.0 20.0 20.0 20.0 20.0 20.0 20.0 20.0 20.0 20.0 20.0 20.0 20.0 20.0 20.0 20.0 20.0 20.0 20.0 20.0 20.0 20.1 20.1 20.1 20.1 20.1 20.1 20.1 20.1 20.1 20.1 20.1 20.1 20.1 20.1 20.1 20.1 20.1 20.1 20.1 20.1 20.1 20.1 20.1 20.1 20.1 20.1 20.1 20.1 20.1 20.1 20.1 20.1 20.1 20.1 20.2 20.2 20.1 20.1 20.2 20.2 20.2 20.2 20.2 20.2 20.2 20.2 20.2 20.2 20.2 20.2 20.2 20.2 20.2 20.1 20.1 20.1 20.1 20.2 20.2 20.3 20.3 20.3 20.3 20.3 20.3 20.3 20.3 20.3 20.3 20.3 20.3 20.3 20.3 20.3 20.3 20.2 20.2 20.2 20.2 20.2 20.1 20.1 20.1 20.3 20.4 20.4 20.4 20.5 20.4 20.5 20.5 20.5 20.5 20.5 20.4 20.4 20.4 20.4 20.4 20.3 20.3 20.3 20.3 20.2 20.2 20.2 20.2 20.1 20.1 20.4 20.5 20.6 20.6 20.6 20.6 20.6 20.7 20.7 20.7 20.6 20.6 20.5 20.5 20.5 20.4 20.4 20.4 20.3 20.3 20.3 20.2 20.2 20.2 20.1 20.0 20.5 20.6 20.7 20.8 20.8 20.8 20.8 20.9 20.9 20.9 20.8 20.7 20.6 20.6 20.6 20.5 20.5 20.4 20.4 20.3 20.3 20.3 20.2 20.2 20.1 20.0 20.6 20.7 20.8 20.9 21.0 21.0 21.0 21.1 21.1 21.0 20.9 20.8 20.7 20.7 20.6 20.6 20.5 20.5 20.4 20.4 20.4 20.3 20.3 20.2 20.1 20.0 20.7 20.8 21.0 21.1 21.1 21.2 21.3 21.3 21.3 21.2 21.0 20.9 20.9 20.8 20.7 20.7 20.6 20.6 20.5 20.4 20.4 20.3 20.3 20.2 20.1 20.0 20.9 21.0 21.1 21.3 21.4 21.4 21.5 21.6 21.5 21.4 21.2 21.1 21.0 20.9 20.9 20.8 20.7 20.6 20.6 20.5 20.4 20.4 20.3 20.2 20.1 20.0 21.0 21.1 21.3 21.5 21.6 21.7 21.9 21.9 21.8 21.6 21.4 21.3 21.2 21.1 21.0 20.9 20.8 20.7 20.6 20.6 20.5 20.4 20.3 20.2 20.1 20.0 21.2 21.3 21.5 21.8 21.9 22.1 22.3 22.3 22.1 21.9 21.7 21.5 21.4 21.3 21.2 21.0 20.9 20.8 20.7 20.6 20.5 20.4 20.3 20.2 20.1 20.0 21.3 21.5 21.8 22.1 22.3 22.6 22.8 22.8 22.5 22.2 22.0 21.8 21.6 21.5 21.3 21.2 21.0 20.9 20.8 20.7 20.6 20.5 20.3 20.2 20.1 20.0 21.5 21.8 22.1 22.4 22.7 23.1 23.5 23.5 23.0 22.6 22.4 22.1 21.9 21.7 21.5 21.4 21.2 21.0 20.9 20.8 20.6 20.5 20.3 20.2 20.1 20.0 21.8 22.1 22.5 22.9 23.3 23.8 24.3 24.2 23.7 23.2 22.8 22.5 22.3 22.0 21.8 21.5 21.3 21.1 21.0 20.8 20.7 20.5 20.3 20.2 20.1 20.0 22.1 22.7 23.4 23.8 24.2 24.8 25.5 25.5 24.6 23.9 23.4 23.0 22.6 22.3 22.0 21.7 21.5 21.3 21.1 20.9 20.7 20.5 20.3 20.2 20.1 20.0 22.6 23.5 24.8 25.6 26.0 27.6 30.7 29.9 26.3 24.7 24.1 23.6 23.1 22.6 22.3 21.9 21.6 21.4 21.2 21.0 20.8 20.6 20.4 20.2 20.1 20.0 23.1 24.3 26.3 28.0 27.9 34.3 42.5 41.0 32.5 26.1 24.9 24.2 23.6 23.0 22.5 22.2 21.8 21.5 21.3 21.1 20.8 20.6 20.4 20.2 20.1 20.1 24.2 26.0 29.0 33.4 37.9 56.9 74.0 67.5 47.0 29.8 26.0 25.0 24.2 23.5 22.9 22.5 22.1 21.8 21.5 21.2 20.9 20.7 20.4 20.2 20.1 20.1 25.9 31.0 41.9 68.3 89.8 148.3 204.6 147.2 66.2 35.9 27.8 26.0 25.0 24.1 23.4 22.8 22.4 22.0 21.7 21.3 21.0 20.7 20.5 20.3 20.1 20.1 28.5 50.5 100.4 173.2 190.4 254.6 343.5 230.2 84.2 41.8 30.0 27.5 26.1 24.8 23.9 23.2 22.6 22.2 21.8 21.4 21.0 20.7 20.4 20.2 20.1 20.1 31.5 64.4 138.7 241.1 252.0 296.3 386.1 279.1 119.1 50.0 31.6 28.5 26.8 25.3 24.2 23.4 22.8 22.2 21.8 21.4 21.0 20.7 20.4 20.2 20.1 20.1 30.4 59.0 131.7 222.6 219.4 230.9 288.6 219.2 109.2 51.1 31.2 28.1 26.6 25.2 24.1 23.3 22.7 22.2 21.8 21.4 21.0 20.7 20.4 20.2 20.1 20.1 27.2 46.9 107.6 180.4 179.2 151.2 141.9 96.2 55.2 38.9 28.9 26.8 25.7 24.5 23.7 23.1 22.5 22.1 21.7 21.4 21.0 20.7 20.4 20.2 20.1 20.1 25.5 32.5 57.8 105.1 123.3 99.8 71.4 46.5 33.6 29.1 26.6 25.4 24.5 23.8 23.1 22.7 22.2 21.9 21.6 21.3 21.0 20.7 20.4 20.2 20.1 20.1 23.2 26.2 30.7 43.9 50.7 42.5 35.2 31.1 28.3 26.4 25.4 24.5 23.8 23.2 22.7 22.3 21.9 21.6 21.4 21.1 20.9 20.6 20.4 20.2 20.1 20.1 20.0 20.0 20.0 20.0 20.0 20.0 20.0 20.0 20.0 20.0 20.0 20.0 20.0 20.0 20.0 20.0 20.0 20.0 20.0 20.1 20.1 20.1 20.1 20.1 20.1 20.1 20.1 20.1 20.1 20.1 20.1 20.1 20.1 20.1 20.1 20.1 20.1 20.1 20.1 20.1 20.1 20.1 20.1 20.1 20.1 20.1 20.1 20.1 20.1 20.1 20.1 20.1 20.1 20.2 20.2 20.2 20.2 20.2 20.2 20.2 20.2 20.2 20.2 20.2 20.2 20.2 20.2 20.2 20.2 20.2 20.2 20.2 20.2 20.2 20.2 20.2 20.1 20.1 20.3 20.3 20.3 20.3 20.3 20.3 20.3 20.4 20.4 20.4 20.4 20.3 20.3 20.3 20.3 20.3 20.3 20.3 20.3 20.3 20.3 20.2 20.2 20.2 20.1 20.1 20.4 20.4 20.5 20.5 20.5 20.5 20.5 20.6 20.6 20.6 20.6 20.5 20.5 20.4 20.4 20.4 20.4 20.4 20.4 20.3 20.3 20.3 20.2 20.2 20.1 20.1 20.5 20.6 20.6 20.7 20.7 20.7 20.7 20.8 20.8 20.8 20.7 20.6 20.6 20.6 20.5 20.5 20.5 20.4 20.4 20.4 20.3 20.3 20.3 20.2 20.1 20.1 20.6 20.7 20.8 20.8 20.8 20.8 20.9 21.0 21.0 20.9 20.8 20.7 20.7 20.7 20.6 20.6 20.5 20.5 20.5 20.4 20.4 20.3 20.3 20.2 20.1 20.1 20.7 20.8 20.9 21.0 21.0 21.0 21.1 21.2 21.2 21.1 20.9 20.8 20.8 20.8 20.7 20.7 20.6 20.6 20.5 20.5 20.4 20.4 20.3 20.2 20.1 20.1 20.8 20.9 21.0 21.1 21.2 21.2 21.3 21.4 21.4 21.2 21.1 21.0 20.9 20.9 20.8 20.8 20.7 20.6 20.6 20.5 20.5 20.4 20.3 20.2 20.1 20.0 20.9 21.0 21.2 21.3 21.4 21.4 21.5 21.6 21.6 21.4 21.2 21.1 21.1 21.0 20.9 20.9 20.8 20.7 20.6 20.6 20.5 20.5 20.4 20.2 20.1 20.0 21.0 21.2 21.3 21.5 21.6 21.7 21.9 22.0 21.8 21.6 21.4 21.3 21.2 21.2 21.1 21.0 20.9 20.8 20.7 20.6 20.6 20.5 20.4 20.2 20.1 20.0 21.1 21.3 21.5 21.7 21.9 22.0 22.3 22.4 22.2 21.9 21.7 21.5 21.4 21.3 21.2 21.1 21.0 20.9 20.8 20.7 20.6 20.5 20.4 20.2 20.1 20.0 21.3 21.5 21.8 22.0 22.2 22.5 22.8 22.8 22.5 22.2 22.0 21.8 21.7 21.5 21.4 21.3 21.1 21.0 20.9 20.8 20.7 20.6 20.4 20.2 20.1 20.0 21.5 21.7 22.0 22.3 22.6 23.0 23.4 23.4 23.0 22.6 22.3 22.1 22.0 21.8 21.6 21.4 21.3 21.1 21.0 20.9 20.7 20.6 20.4 20.2 20.1 20.0 21.7 22.0 22.4 22.8 23.1 23.6 24.2 24.1 23.6 23.1 22.8 22.5 22.3 22.0 21.8 21.6 21.4 21.2 21.1 20.9 20.8 20.6 20.4 20.2 20.1 20.0 22.1 22.6 23.2 23.6 24.1 24.6 25.4 25.3 24.5 23.8 23.3 23.0 22.6 22.3 22.0 21.8 21.6 21.3 21.2 21.0 20.8 20.6 20.4 20.2 20.1 20.0 23.0 23.8 24.7 25.8 26.5 27.5 29.4 28.6 26.0 24.6 24.0 23.5 23.1 22.7 22.3 22.0 21.7 21.5 21.3 21.1 20.9 20.6 20.4 20.2 20.1 20.1 25.9 26.4 26.8 27.0 27.5 32.3 37.6 38.4 32.2 25.8 24.7 24.1 23.5 23.0 22.6 22.2 21.9 21.6 21.4 21.2 21.0 20.7 20.5 20.3 20.1 20.1 33.5 32.7 30.9 29.3 30.2 43.2 56.7 59.4 45.0 28.6 25.9 24.8 24.1 23.5 22.9 22.5 22.1 21.9 21.6 21.3 21.1 20.8 20.5 20.3 20.1 20.1 43.3 46.4 50.1 53.4 59.9 105.2 152.8 125.1 65.3 35.5 28.0 26.0 24.9 24.1 23.4 22.9 22.5 22.1 21.8 21.5 21.1 20.8 20.5 20.3 20.1 20.1 50.6 86.8 135.2 137.4 119.0 190.5 256.5 176.9 78.4 44.2 30.6 27.3 26.0 24.8 24.0 23.3 22.7 22.3 21.9 21.5 21.2 20.8 20.5 20.3 20.1 20.1 51.2 112.6 194.4 194.7 161.3 246.2 312.2 212.9 100.4 53.3 32.3 28.2 26.8 25.4 24.3 23.5 22.8 22.3 21.9 21.5 21.1 20.8 20.5 20.3 20.1 20.1 47.7 106.9 187.9 183.9 148.4 216.9 270.0 198.2 107.7 56.9 31.6 27.9 26.6 25.3 24.2 23.4 22.8 22.3 21.9 21.5 21.1 20.8 20.5 20.3 20.1 20.1 42.7 85.4 149.7 173.2 148.7 144.7 150.1 113.4 70.6 44.5 28.9 26.6 25.7 24.6 23.7 23.1 22.6 22.2 21.8 21.5 21.2 20.8 20.5 20.3 20.1 20.1 32.8 48.8 73.6 109.3 112.3 84.6 72.9 57.5 39.3 30.5 26.6 25.3 24.5 23.8 23.2 22.7 22.3 22.0 21.7 21.4 21.1 20.8 20.5 20.3 20.1 20.1 24.7 30.7 34.1 39.4 41.2 36.7 34.6 32.1 28.7 26.3 25.3 24.4 23.7 23.2 22.7 22.3 22.0 21.7 21.5 21.2 21.0 20.7 20.5 20.3 20.1 20.1 20.0 20.0 20.0 20.0 20.0 20.0 20.0 20.0 20.0 20.1 20.0 20.0 20.0 20.0 20.0 20.0 20.0 20.1 20.1 20.1 20.1 20.1 20.1 20.1 20.1 20.1 20.1 20.1 20.1 20.1 20.1 20.1 20.1 20.1 20.1 20.1 20.1 20.1 20.1 20.1 20.1 20.1 20.1 20.1 20.1 20.1 20.1 20.1 20.2 20.2 20.1 20.1 20.2 20.2 20.2 20.2 20.2 20.2 20.2 20.2 20.2 20.3 20.2 20.2 20.2 20.2 20.2 20.2 20.2 20.3 20.3 20.3 20.2 20.2 20.2 20.2 20.2 20.1 20.3 20.3 20.3 20.3 20.3 20.3 20.3 20.4 20.4 20.5 20.4 20.4 20.4 20.4 20.4 20.4 20.4 20.4 20.4 20.3 20.3 20.3 20.3 20.2 20.2 20.1 20.4 20.4 20.5 20.5 20.5 20.5 20.5 20.6 20.6 20.6 20.6 20.5 20.5 20.5 20.5 20.5 20.5 20.4 20.4 20.4 20.3 20.3 20.3 20.2 20.2 20.1 20.5 20.6 20.6 20.7 20.7 20.7 20.7 20.8 20.8 20.8 20.8 20.7 20.6 20.6 20.6 20.6 20.5 20.5 20.5 20.4 20.4 20.4 20.3 20.3 20.1 20.1 20.6 20.7 20.8 20.8 20.8 20.8 20.9 21.0 21.0 21.0 20.9 20.8 20.7 20.7 20.7 20.6 20.6 20.5 20.5 20.5 20.4 20.4 20.4 20.3 20.1 20.1 20.7 20.8 20.9 21.0 21.0 21.0 21.0 21.1 21.2 21.1 21.0 20.9 20.8 20.8 20.7 20.7 20.7 20.6 20.6 20.5 20.5 20.4 20.4 20.3 20.1 20.1 20.8 20.9 21.0 21.1 21.1 21.2 21.2 21.3 21.3 21.2 21.1 21.0 20.9 20.9 20.8 20.8 20.7 20.7 20.6 20.6 20.5 20.5 20.4 20.3 20.1 20.1 20.9 21.0 21.1 21.2 21.3 21.4 21.5 21.6 21.5 21.4 21.2 21.1 21.0 21.0 20.9 20.9 20.8 20.7 20.7 20.6 20.6 20.5 20.4 20.3 20.1 20.1 21.0 21.1 21.3 21.4 21.5 21.6 21.8 21.9 21.8 21.6 21.4 21.3 21.2 21.1 21.1 21.0 20.9 20.8 20.8 20.7 20.6 20.6 20.4 20.3 20.1 20.1 21.1 21.3 21.5 21.6 21.8 21.9 22.2 22.2 22.1 21.8 21.6 21.5 21.4 21.3 21.2 21.1 21.0 20.9 20.8 20.8 20.7 20.6 20.5 20.3 20.1 20.1 21.2 21.4 21.7 21.9 22.0 22.3 22.6 22.7 22.4 22.1 21.9 21.7 21.6 21.5 21.4 21.3 21.1 21.0 20.9 20.8 20.7 20.6 20.5 20.3 20.1 20.1 21.4 21.6 21.9 22.1 22.4 22.8 23.2 23.2 22.9 22.5 22.2 22.0 21.9 21.7 21.6 21.4 21.3 21.1 21.0 20.9 20.8 20.6 20.5 20.3 20.1 20.1 21.6 21.9 22.3 22.6 22.9 23.5 24.0 23.9 23.4 22.9 22.6 22.4 22.2 22.0 21.8 21.6 21.4 21.2 21.1 21.0 20.8 20.7 20.5 20.3 20.1 20.1 22.3 22.7 22.9 23.3 23.7 24.4 25.1 24.9 24.1 23.5 23.1 22.8 22.5 22.2 22.0 21.7 21.5 21.3 21.2 21.0 20.9 20.7 20.5 20.3 20.1 20.1 23.8 24.4 24.4 25.3 26.0 26.4 27.2 27.1 25.6 24.2 23.7 23.3 22.9 22.5 22.2 21.9 21.7 21.5 21.3 21.1 20.9 20.7 20.5 20.3 20.1 20.1 27.4 27.7 25.9 27.3 31.7 32.3 32.3 36.5 33.0 25.8 24.5 23.8 23.3 22.9 22.5 22.1 21.9 21.6 21.4 21.2 21.0 20.8 20.5 20.3 20.1 20.1 38.6 37.3 29.9 31.0 43.0 46.3 48.6 58.3 46.4 28.3 25.7 24.6 23.9 23.3 22.8 22.5 22.1 21.8 21.6 21.4 21.1 20.9 20.6 20.3 20.1 20.1 57.3 59.9 46.3 47.6 81.7 103.2 115.3 105.8 60.1 33.2 27.5 25.7 24.7 23.9 23.3 22.8 22.4 22.1 21.8 21.5 21.2 20.9 20.6 20.3 20.1 20.1 82.9 120.9 112.0 92.3 146.2 194.4 182.7 130.3 67.0 39.6 30.2 26.9 25.7 24.7 23.9 23.2 22.7 22.2 21.9 21.6 21.2 20.9 20.6 20.3 20.1 20.1 93.5 160.2 158.7 133.7 214.0 284.5 251.4 168.8 89.9 49.3 32.4 27.6 26.4 25.2 24.2 23.4 22.8 22.3 21.9 21.5 21.2 20.9 20.5 20.3 20.1 20.1 91.0 155.9 155.7 132.7 210.0 277.3 257.8 194.3 116.3 58.9 31.9 27.4 26.3 25.2 24.1 23.3 22.8 22.3 21.9 21.5 21.2 20.9 20.6 20.3 20.1 20.1 77.9 128.5 137.6 133.1 157.2 164.8 153.8 132.9 92.4 49.6 29.1 26.3 25.5 24.6 23.7 23.0 22.6 22.2 21.9 21.6 21.2 20.9 20.6 20.3 20.1 20.1 45.9 72.0 83.5 94.6 91.2 71.0 69.2 67.8 50.4 32.7 26.5 25.1 24.3 23.7 23.1 22.7 22.3 22.0 21.8 21.5 21.2 20.9 20.6 20.3 20.1 20.1 26.5 36.8 40.1 36.3 33.6 32.5 34.3 35.0 31.1 26.6 25.0 24.2 23.5 23.0 22.6 22.2 22.0 21.7 21.5 21.3 21.1 20.8 20.5 20.3 20.1 20.1 20.0 20.0 20.0 20.0 20.0 20.0 20.0 20.0 20.0 20.1 20.1 20.0 20.0 20.0 20.0 20.0 20.1 20.1 20.1 20.1 20.1 20.1 20.1 20.1 20.2 20.2 20.1 20.1 20.1 20.1 20.1 20.1 20.1 20.1 20.1 20.1 20.1 20.1 20.1 20.1 20.1 20.1 20.1 20.1 20.1 20.2 20.2 20.2 20.2 20.2 20.2 20.2 20.2 20.2 20.2 20.2 20.2 20.2 20.2 20.2 20.2 20.3 20.3 20.2 20.2 20.2 20.2 20.3 20.3 20.3 20.3 20.3 20.3 20.3 20.3 20.2 20.2 20.1 20.3 20.3 20.3 20.3 20.3 20.3 20.3 20.4 20.4 20.5 20.5 20.4 20.4 20.4 20.4 20.4 20.4 20.4 20.4 20.4 20.3 20.3 20.3 20.3 20.2 20.1 20.4 20.4 20.5 20.5 20.5 20.5 20.5 20.6 20.6 20.7 20.6 20.6 20.5 20.5 20.5 20.5 20.5 20.5 20.4 20.4 20.4 20.3 20.3 20.3 20.2 20.1 20.5 20.6 20.6 20.6 20.7 20.6 20.7 20.7 20.8 20.8 20.7 20.7 20.6 20.6 20.6 20.6 20.5 20.5 20.5 20.4 20.4 20.4 20.4 20.3 20.2 20.1 20.6 20.7 20.7 20.8 20.8 20.8 20.8 20.9 21.0 20.9 20.8 20.7 20.7 20.6 20.6 20.6 20.6 20.5 20.5 20.5 20.4 20.4 20.4 20.3 20.2 20.1 20.7 20.7 20.8 20.9 20.9 20.9 21.0 21.1 21.1 21.0 20.9 20.8 20.8 20.7 20.7 20.7 20.6 20.6 20.6 20.5 20.5 20.5 20.4 20.3 20.2 20.1 20.7 20.8 20.9 21.0 21.0 21.1 21.1 21.2 21.2 21.2 21.0 20.9 20.9 20.8 20.8 20.8 20.7 20.7 20.6 20.6 20.5 20.5 20.4 20.3 20.2 20.1 20.8 20.9 21.0 21.1 21.2 21.3 21.4 21.4 21.4 21.3 21.1 21.0 21.0 20.9 20.9 20.8 20.8 20.7 20.7 20.6 20.6 20.5 20.5 20.3 20.1 20.1 20.9 21.0 21.2 21.3 21.4 21.5 21.6 21.7 21.6 21.5 21.3 21.2 21.1 21.1 21.0 20.9 20.9 20.8 20.7 20.7 20.6 20.6 20.5 20.3 20.1 20.1 21.0 21.2 21.3 21.5 21.6 21.8 22.0 22.0 21.9 21.7 21.5 21.4 21.3 21.2 21.1 21.0 21.0 20.9 20.8 20.8 20.7 20.6 20.5 20.3 20.1 20.1 21.1 21.3 21.5 21.7 21.9 22.1 22.4 22.4 22.2 21.9 21.7 21.6 21.5 21.4 21.3 21.2 21.1 21.0 20.9 20.8 20.7 20.6 20.5 20.3 20.1 20.1 21.3 21.5 21.7 21.9 22.1 22.5 22.9 23.0 22.6 22.3 22.0 21.9 21.7 21.6 21.4 21.3 21.2 21.1 21.0 20.9 20.8 20.7 20.5 20.3 20.1 20.1 21.6 21.9 22.0 22.3 22.7 23.2 23.7 23.6 23.1 22.7 22.4 22.2 22.0 21.8 21.6 21.5 21.3 21.2 21.0 20.9 20.8 20.7 20.5 20.3 20.1 20.1 22.9 23.4 22.7 22.8 23.3 24.0 24.5 24.3 23.7 23.2 22.9 22.6 22.3 22.1 21.8 21.6 21.4 21.3 21.1 21.0 20.9 20.7 20.5 20.3 20.1 20.1 24.9 25.6 24.2 24.3 24.8 25.1 25.7 26.1 25.2 23.9 23.4 23.0 22.7 22.3 22.0 21.8 21.6 21.4 21.2 21.1 20.9 20.7 20.5 20.3 20.1 20.1 27.3 34.0 35.2 34.5 35.4 30.8 30.2 34.7 32.8 26.2 24.2 23.5 23.1 22.6 22.3 22.0 21.7 21.5 21.3 21.2 21.0 20.8 20.6 20.3 20.1 20.1 34.4 53.7 64.8 66.2 64.6 48.0 46.6 54.3 43.9 28.5 25.2 24.2 23.6 23.1 22.6 22.3 22.0 21.7 21.6 21.4 21.1 20.9 20.6 20.3 20.1 20.1 49.9 78.3 91.6 101.6 107.8 89.6 91.5 80.9 48.1 30.3 26.6 25.1 24.3 23.7 23.1 22.7 22.3 22.0 21.7 21.5 21.2 20.9 20.6 20.3 20.1 20.1 85.4 121.1 119.4 139.9 170.1 160.6 146.1 103.3 55.8 34.9 29.1 26.2 25.2 24.5 23.6 23.0 22.5 22.1 21.8 21.5 21.2 20.9 20.6 20.3 20.1 20.1 116.4 150.1 141.2 189.8 248.0 246.8 222.4 160.6 91.3 46.1 31.1 26.9 25.8 24.9 23.9 23.1 22.6 22.1 21.8 21.5 21.2 20.9 20.6 20.3 20.1 20.1 120.6 145.1 124.3 172.0 229.9 228.8 218.2 187.4 127.5 60.2 31.3 26.8 25.7 24.9 23.9 23.0 22.6 22.1 21.8 21.5 21.2 20.9 20.6 20.3 20.1 20.1 92.2 123.6 107.6 117.4 135.9 122.4 115.4 126.8 107.1 53.3 29.4 25.9 25.0 24.3 23.5 22.8 22.4 22.1 21.8 21.5 21.2 20.9 20.6 20.3 20.1 20.1 47.2 75.1 79.6 72.3 65.6 55.8 54.8 69.7 61.9 35.4 26.6 24.6 24.0 23.4 22.9 22.5 22.2 21.9 21.7 21.5 21.2 20.9 20.6 20.3 20.1 20.1 26.2 35.5 38.6 33.3 29.5 30.0 33.5 39.5 36.6 27.7 24.7 23.7 23.2 22.8 22.4 22.1 21.8 21.6 21.4 21.3 21.1 20.8 20.6 20.3 20.1 20.1 20.0 20.0 20.0 20.0 20.0 20.0 20.0 20.0 20.0 20.1 20.1 20.1 20.0 20.0 20.0 20.1 20.1 20.1 20.1 20.1 20.1 20.1 20.1 20.2 20.2 20.2 20.1 20.1 20.1 20.1 20.1 20.1 20.1 20.1 20.1 20.1 20.1 20.1 20.1 20.1 20.1 20.1 20.1 20.1 20.2 20.2 20.2 20.2 20.2 20.2 20.2 20.2 20.2 20.2 20.2 20.2 20.2 20.2 20.2 20.2 20.2 20.3 20.3 20.3 20.2 20.2 20.2 20.3 20.3 20.3 20.3 20.3 20.3 20.3 20.3 20.3 20.2 20.2 20.3 20.3 20.3 20.3 20.3 20.3 20.3 20.4 20.4 20.5 20.4 20.4 20.4 20.4 20.4 20.4 20.4 20.4 20.4 20.4 20.3 20.3 20.3 20.3 20.2 20.1 20.4 20.4 20.4 20.5 20.5 20.5 20.5 20.5 20.6 20.6 20.6 20.5 20.5 20.5 20.5 20.5 20.5 20.4 20.4 20.4 20.4 20.3 20.3 20.3 20.2 20.1 20.5 20.5 20.6 20.6 20.6 20.6 20.6 20.7 20.7 20.8 20.7 20.6 20.6 20.5 20.5 20.5 20.5 20.5 20.4 20.4 20.4 20.4 20.3 20.3 20.2 20.1 20.6 20.6 20.7 20.7 20.7 20.7 20.7 20.8 20.9 20.8 20.8 20.7 20.6 20.6 20.6 20.6 20.5 20.5 20.5 20.5 20.4 20.4 20.4 20.3 20.2 20.1 20.6 20.7 20.7 20.8 20.8 20.8 20.9 20.9 21.0 20.9 20.8 20.7 20.7 20.7 20.7 20.6 20.6 20.6 20.5 20.5 20.5 20.4 20.4 20.3 20.2 20.1 20.7 20.7 20.8 20.9 20.9 21.0 21.0 21.1 21.1 21.0 20.9 20.8 20.8 20.8 20.7 20.7 20.7 20.6 20.6 20.5 20.5 20.5 20.4 20.3 20.2 20.1 20.7 20.8 20.9 21.0 21.1 21.1 21.2 21.3 21.3 21.2 21.0 20.9 20.9 20.9 20.8 20.8 20.7 20.7 20.6 20.6 20.5 20.5 20.4 20.3 20.2 20.1 20.8 20.9 21.0 21.1 21.2 21.3 21.5 21.5 21.5 21.3 21.2 21.1 21.0 21.0 20.9 20.9 20.8 20.7 20.7 20.6 20.6 20.5 20.5 20.3 20.1 20.1 20.9 21.1 21.2 21.3 21.4 21.6 21.8 21.8 21.7 21.5 21.4 21.3 21.2 21.1 21.0 21.0 20.9 20.8 20.7 20.7 20.6 20.6 20.5 20.3 20.1 20.1 21.1 21.2 21.3 21.5 21.6 21.9 22.1 22.2 22.0 21.8 21.6 21.5 21.4 21.3 21.2 21.1 21.0 20.9 20.8 20.8 20.7 20.6 20.5 20.3 20.1 20.1 21.2 21.4 21.5 21.7 21.9 22.2 22.6 22.6 22.4 22.1 21.9 21.7 21.6 21.4 21.3 21.2 21.1 21.0 20.9 20.8 20.7 20.6 20.5 20.3 20.1