<?xml version="1.0"?>
<VTKFile type="RectilinearGrid" version="1.0" byte_order="LittleEndian" header_type="UInt64">
<RectilinearGrid WholeExtent="25 50 0 25 0 15">
<Piece Extent="25 50 0 25 0 15">
<Coordinates>
<DataArray type="Float64" Name="Array X-Axis" format="ascii" RangeMin="15.0" RangeMax="30.0">
15.0 15.6 16.2 16.8 17.4 18.0 18.6 19.2 19.8 20.4 21.0 21.6 22.2 22.8 23.4 24.0 24.6 25.2 25.8 26.4 27.0 27.6 28.2 28.8 29.4 30.0 
</DataArray>
<DataArray type="Float64" Name="Array Y-Axis" format="ascii" RangeMin="0.0" RangeMax="15.0">
0.0 0.6 1.2 1.8 2.4 3.0 3.6 4.2 4.8 5.4 6.0 6.6 7.2 7.8 8.4 9.0 9.6 10.2 10.8 11.4 12.0 12.6 13.2 13.8 14.4 15.0 
</DataArray>
<DataArray type="Float64" Name="Array Z-Axis" format="ascii" RangeMin="0.0" RangeMax="9.0">
0.0 0.6 1.2 1.8 2.4 3.0 3.6 4.2 4.8 5.4 6.0 6.6 7.2 7.8 8.4 9.0 
</DataArray>
</Coordinates>
<PointData>
<DataArray Name="TEMPERATURE" NumberOfComponents="1" type="Float64" format="ascii">
20.0 20.0 20.0 20.1 20.1 20.1 20.1 20.1 20.1 20.1 20.0 20.0 20.0 20.0 20.0 20.0 20.0 20.0 20.0 20.0 20.0 20.0 20.0 20.0 20.0 20.0 20.1 20.1 20.1 20.1 20.1 20.1 20.1 20.2 20.2 20.1 20.1 20.1 20.1 20.1 20.1 20.1 20.1 20.1 20.1 20.1 20.1 20.1 20.1 20.0 20.0 20.0 20.1 20.1 20.2 20.2 20.2 20.2 20.2 20.3 20.3 20.3 20.2 20.2 20.2 20.2 20.2 20.1 20.1 20.1 20.1 20.1 20.1 20.1 20.1 20.1 20.1 20.0 20.2 20.2 20.2 20.3 20.3 20.3 20.3 20.4 20.4 20.4 20.4 20.3 20.3 20.2 20.2 20.2 20.2 20.2 20.2 20.2 20.2 20.2 20.2 20.1 20.1 20.0 20.3 20.3 20.3 20.4 20.4 20.4 20.4 20.5 20.5 20.5 20.5 20.4 20.4 20.3 20.3 20.3 20.3 20.3 20.3 20.3 20.3 20.2 20.2 20.1 20.1 20.0 20.4 20.4 20.4 20.5 20.5 20.5 20.5 20.5 20.6 20.6 20.6 20.5 20.5 20.4 20.4 20.4 20.4 20.4 20.4 20.3 20.3 20.3 20.2 20.1 20.1 20.0 20.5 20.5 20.6 20.6 20.7 20.7 20.7 20.7 20.7 20.8 20.7 20.6 20.6 20.5 20.5 20.5 20.5 20.5 20.5 20.4 20.4 20.3 20.2 20.1 20.1 20.0 20.6 20.6 20.7 20.8 20.8 20.8 20.9 20.9 20.9 20.9 20.9 20.8 20.7 20.7 20.6 20.6 20.6 20.6 20.6 20.5 20.4 20.3 20.2 20.2 20.1 20.0 20.7 20.8 20.8 20.9 21.0 21.0 21.0 21.0 21.1 21.1 21.0 20.9 20.8 20.8 20.8 20.7 20.7 20.7 20.7 20.5 20.4 20.3 20.2 20.2 20.1 20.0 20.8 20.9 21.0 21.1 21.1 21.2 21.2 21.3 21.3 21.3 21.2 21.0 21.0 20.9 20.9 20.9 20.9 20.8 20.7 20.5 20.4 20.3 20.3 20.2 20.1 20.0 21.0 21.1 21.2 21.3 21.4 21.5 21.5 21.5 21.5 21.5 21.3 21.2 21.1 21.1 21.1 21.1 21.0 20.8 20.7 20.6 20.5 20.4 20.3 20.2 20.1 20.1 21.1 21.3 21.4 21.5 21.6 21.8 21.8 21.7 21.7 21.7 21.5 21.4 21.3 21.3 21.3 21.2 21.0 20.8 20.7 20.6 20.5 20.4 20.3 20.2 20.1 20.1 21.3 21.5 21.7 21.9 22.0 22.1 22.1 22.1 22.0 21.9 21.7 21.6 21.6 21.5 21.4 21.3 21.1 20.9 20.8 20.6 20.5 20.4 20.3 20.2 20.1 20.1 21.6 21.7 22.0 22.2 22.4 22.5 22.6 22.6 22.5 22.3 22.0 21.9 21.9 21.8 21.5 21.3 21.1 21.0 20.8 20.7 20.6 20.5 20.4 20.2 20.1 20.1 21.8 22.0 22.3 22.6 22.7 22.9 23.1 23.1 23.0 22.7 22.4 22.3 22.2 21.9 21.6 21.4 21.2 21.0 20.9 20.8 20.6 20.5 20.4 20.3 20.1 20.1 22.1 22.3 22.7 23.0 23.3 23.6 23.7 23.7 23.5 23.1 22.9 22.7 22.4 22.0 21.7 21.5 21.3 21.1 21.0 20.8 20.7 20.5 20.4 20.3 20.1 20.1 22.4 22.7 23.1 23.6 24.2 24.6 24.7 24.4 24.1 23.8 23.4 23.0 22.5 22.2 21.9 21.6 21.4 21.2 21.0 20.9 20.7 20.6 20.4 20.3 20.2 20.1 22.8 23.2 23.6 24.2 25.0 25.7 25.9 25.6 25.1 24.5 23.8 23.2 22.7 22.3 22.1 21.8 21.6 21.4 21.1 20.9 20.8 20.6 20.5 20.4 20.2 20.2 23.4 23.8 24.4 25.1 26.2 27.4 27.8 27.2 26.1 25.1 24.3 23.6 23.0 22.6 22.4 22.1 21.9 21.6 21.3 21.1 20.9 20.7 20.6 20.5 20.3 20.2 24.0 24.5 25.4 26.7 28.8 32.4 34.1 32.3 29.0 26.2 25.1 24.4 23.6 23.0 22.7 22.4 22.0 21.7 21.4 21.2 20.9 20.8 20.6 20.5 20.3 20.2 24.8 25.7 26.9 29.4 31.6 36.2 39.3 35.6 31.6 27.8 26.3 25.3 24.1 23.3 22.9 22.4 21.9 21.6 21.4 21.2 21.0 20.8 20.6 20.4 20.3 20.2 26.0 27.3 28.8 32.2 34.8 20.0 20.0 34.3 32.2 28.8 27.0 25.8 24.5 23.6 23.0 22.4 21.9 21.6 21.3 21.1 20.9 20.7 20.6 20.4 20.2 20.2 26.3 27.6 29.3 32.6 34.7 20.0 20.0 35.2 32.6 28.9 26.9 25.6 24.6 23.8 23.1 22.4 22.0 21.6 21.4 21.2 21.0 20.8 20.6 20.4 20.2 20.1 25.7 26.6 28.3 30.7 33.2 37.8 36.1 32.9 30.8 27.8 26.3 25.0 24.3 23.6 22.8 22.3 21.9 21.6 21.4 21.2 20.9 20.7 20.5 20.3 20.1 20.1 24.7 25.5 26.6 28.3 31.0 33.7 32.7 29.5 27.5 26.1 25.2 24.3 23.6 23.1 22.5 22.1 21.8 21.5 21.3 21.1 20.9 20.7 20.5 20.3 20.1 20.1 23.1 24.6 25.2 26.3 27.6 28.4 28.3 27.0 25.6 24.7 24.0 23.5 23.0 22.6 22.2 21.9 21.6 21.4 21.2 21.0 20.8 20.6 20.4 20.3 20.1 20.1 20.0 20.0 20.0 20.1 20.1 20.1 20.1 20.1 20.1 20.1 20.0 20.0 20.0 20.0 20.0 20.0 20.0 20.0 20.0 20.0 20.0 20.0 20.0 20.0 20.0 20.0 20.1 20.1 20.1 20.1 20.1 20.1 20.1 20.1 20.1 20.1 20.1 20.1 20.1 20.1 20.1 20.1 20.1 20.1 20.1 20.1 20.1 20.1 20.0 20.0 20.0 20.0 20.1 20.1 20.1 20.2 20.2 20.2 20.2 20.3 20.2 20.2 20.2 20.2 20.2 20.1 20.1 20.1 20.1 20.1 20.1 20.1 20.1 20.1 20.1 20.1 20.0 20.0 20.2 20.2 20.2 20.3 20.3 20.3 20.3 20.4 20.4 20.4 20.3 20.3 20.2 20.2 20.2 20.2 20.2 20.2 20.2 20.2 20.2 20.2 20.2 20.1 20.1 20.0 20.3 20.3 20.3 20.3 20.4 20.4 20.4 20.5 20.5 20.5 20.5 20.4 20.3 20.3 20.3 20.3 20.3 20.3 20.3 20.2 20.3 20.2 20.2 20.1 20.1 20.0 20.4 20.4 20.4 20.5 20.5 20.5 20.5 20.5 20.6 20.6 20.6 20.5 20.4 20.4 20.4 20.4 20.4 20.3 20.3 20.3 20.3 20.3 20.2 20.1 20.1 20.0 20.5 20.5 20.5 20.6 20.6 20.6 20.7 20.7 20.7 20.7 20.7 20.6 20.5 20.5 20.5 20.5 20.4 20.4 20.5 20.4 20.4 20.3 20.2 20.1 20.1 20.0 20.6 20.6 20.7 20.7 20.8 20.8 20.8 20.9 20.9 20.9 20.8 20.7 20.6 20.6 20.6 20.6 20.6 20.6 20.6 20.5 20.4 20.3 20.2 20.1 20.1 20.0 20.7 20.7 20.8 20.9 21.0 21.0 21.0 21.1 21.1 21.1 21.0 20.8 20.8 20.7 20.7 20.7 20.7 20.7 20.6 20.5 20.4 20.3 20.2 20.2 20.1 20.0 20.8 20.9 21.0 21.1 21.1 21.2 21.2 21.3 21.3 21.3 21.1 21.0 20.9 20.9 20.9 20.9 20.9 20.8 20.6 20.5 20.4 20.3 20.2 20.2 20.1 20.0 21.0 21.1 21.2 21.3 21.4 21.5 21.5 21.5 21.5 21.5 21.3 21.2 21.1 21.1 21.1 21.1 21.0 20.8 20.6 20.5 20.4 20.4 20.3 20.2 20.1 20.0 21.1 21.3 21.4 21.5 21.7 21.8 21.8 21.8 21.8 21.6 21.5 21.4 21.3 21.3 21.3 21.2 21.0 20.8 20.7 20.6 20.5 20.4 20.3 20.2 20.1 20.1 21.3 21.5 21.7 21.9 22.0 22.1 22.2 22.2 22.1 21.9 21.7 21.6 21.6 21.6 21.4 21.2 21.0 20.8 20.7 20.6 20.5 20.4 20.3 20.2 20.1 20.1 21.6 21.7 22.0 22.3 22.4 22.6 22.7 22.7 22.5 22.3 22.0 22.0 21.9 21.8 21.5 21.3 21.1 20.9 20.8 20.7 20.6 20.4 20.3 20.2 20.1 20.1 21.8 22.0 22.3 22.6 22.9 23.1 23.3 23.2 23.0 22.7 22.4 22.3 22.2 21.9 21.6 21.4 21.2 21.0 20.9 20.7 20.6 20.5 20.4 20.2 20.1 20.1 22.1 22.4 22.7 23.2 23.5 23.9 24.0 23.8 23.5 23.2 22.9 22.7 22.4 22.0 21.7 21.5 21.3 21.1 20.9 20.8 20.6 20.5 20.4 20.2 20.1 20.1 22.5 22.8 23.2 23.8 24.5 25.1 25.1 24.7 24.2 23.9 23.5 23.0 22.6 22.2 21.9 21.6 21.4 21.2 21.0 20.8 20.7 20.5 20.4 20.3 20.1 20.1 22.9 23.4 23.9 24.6 25.6 26.5 26.8 26.2 25.2 24.6 24.0 23.3 22.8 22.4 22.1 21.8 21.6 21.4 21.1 20.9 20.8 20.6 20.5 20.3 20.2 20.1 23.5 24.1 24.7 26.0 27.5 29.3 30.4 29.0 26.7 25.3 24.4 23.7 23.1 22.7 22.4 22.1 21.9 21.6 21.3 21.1 20.9 20.7 20.5 20.4 20.2 20.1 24.2 25.0 26.4 29.1 32.7 38.9 41.0 35.5 29.8 26.4 25.2 24.5 23.7 23.1 22.7 22.4 22.1 21.7 21.4 21.2 20.9 20.7 20.6 20.4 20.2 20.1 25.2 26.4 29.5 36.1 64.8 125.9 119.6 57.0 32.4 27.9 26.5 25.5 24.3 23.5 23.0 22.5 22.0 21.7 21.4 21.2 20.9 20.7 20.5 20.4 20.2 20.2 26.7 28.2 31.7 39.9 114.8 359.9 347.7 105.0 36.8 29.4 27.4 26.1 24.8 23.8 23.2 22.6 22.0 21.7 21.4 21.1 20.9 20.7 20.5 20.4 20.2 20.1 27.4 28.7 30.8 37.7 116.4 383.7 391.7 124.2 39.0 29.7 27.3 25.9 24.9 24.0 23.2 22.6 22.1 21.7 21.4 21.1 20.9 20.7 20.5 20.3 20.2 20.1 26.1 27.2 29.2 35.8 68.6 141.8 146.5 72.8 35.3 28.4 26.4 25.1 24.4 23.7 23.0 22.4 22.0 21.7 21.4 21.2 20.9 20.7 20.5 20.3 20.1 20.1 24.8 25.7 27.5 31.7 35.4 38.7 38.9 35.4 30.8 26.4 25.2 24.3 23.7 23.1 22.6 22.1 21.8 21.5 21.3 21.1 20.8 20.6 20.5 20.3 20.1 20.1 23.2 24.8 25.6 27.1 28.4 29.4 30.1 29.3 27.0 25.0 24.2 23.6 23.1 22.6 22.2 21.9 21.6 21.4 21.2 20.9 20.7 20.6 20.4 20.3 20.1 20.1 20.0 20.0 20.0 20.0 20.1 20.1 20.1 20.0 20.0 20.0 20.0 20.0 20.0 20.0 20.0 20.0 20.0 20.0 20.0 20.0 20.0 20.0 20.0 20.0 20.0 20.0 20.1 20.1 20.1 20.1 20.1 20.1 20.1 20.1 20.1 20.1 20.1 20.1 20.1 20.1 20.1 20.1 20.1 20.1 20.1 20.0 20.0 20.0 20.0 20.0 20.0 20.0 20.1 20.1 20.1 20.1 20.2 20.2 20.2 20.2 20.2 20.2 20.2 20.2 20.1 20.1 20.1 20.1 20.1 20.1 20.1 20.1 20.1 20.1 20.1 20.1 20.0 20.0 20.2 20.2 20.2 20.2 20.2 20.3 20.3 20.3 20.3 20.3 20.3 20.2 20.2 20.2 20.2 20.2 20.2 20.2 20.2 20.1 20.1 20.1 20.1 20.1 20.0 20.0 20.3 20.3 20.3 20.3 20.3 20.3 20.4 20.4 20.4 20.4 20.4 20.3 20.3 20.3 20.3 20.3 20.2 20.2 20.2 20.2 20.2 20.2 20.2 20.1 20.0 20.0 20.3 20.4 20.4 20.4 20.5 20.5 20.5 20.5 20.6 20.6 20.5 20.4 20.4 20.4 20.3 20.3 20.3 20.3 20.3 20.3 20.3 20.3 20.2 20.1 20.0 20.0 20.4 20.5 20.5 20.6 20.6 20.6 20.6 20.7 20.7 20.7 20.6 20.5 20.5 20.5 20.4 20.4 20.4 20.4 20.4 20.4 20.4 20.3 20.2 20.1 20.1 20.0 20.5 20.6 20.6 20.7 20.8 20.8 20.8 20.8 20.9 20.8 20.7 20.6 20.6 20.6 20.5 20.5 20.5 20.6 20.6 20.5 20.3 20.3 20.2 20.1 20.1 20.0 20.7 20.7 20.8 20.9 21.0 21.0 21.0 21.0 21.1 21.0 20.9 20.8 20.7 20.7 20.7 20.7 20.7 20.7 20.6 20.4 20.3 20.3 20.2 20.1 20.1 20.0 20.8 20.9 21.0 21.1 21.2 21.2 21.2 21.3 21.3 21.2 21.0 20.9 20.9 20.8 20.8 20.9 20.8 20.7 20.6 20.4 20.4 20.3 20.2 20.1 20.1 20.0 20.9 21.0 21.2 21.3 21.4 21.5 21.5 21.6 21.5 21.4 21.2 21.1 21.0 21.0 21.0 21.0 20.9 20.7 20.6 20.5 20.4 20.3 20.2 20.2 20.1 20.0 21.1 21.3 21.4 21.6 21.7 21.8 21.9 21.9 21.8 21.6 21.4 21.3 21.3 21.3 21.3 21.1 20.9 20.7 20.6 20.5 20.4 20.3 20.2 20.2 20.1 20.0 21.3 21.5 21.7 21.9 22.1 22.2 22.3 22.3 22.1 21.9 21.7 21.6 21.6 21.6 21.4 21.1 20.9 20.8 20.7 20.6 20.4 20.4 20.3 20.2 20.1 20.0 21.6 21.8 22.0 22.3 22.6 22.7 22.9 22.8 22.5 22.2 22.1 22.0 21.9 21.8 21.5 21.2 21.0 20.9 20.7 20.6 20.5 20.4 20.3 20.2 20.1 20.0 21.9 22.1 22.4 22.8 23.1 23.4 23.6 23.5 23.0 22.7 22.6 22.4 22.2 21.9 21.6 21.3 21.1 21.0 20.8 20.7 20.5 20.4 20.3 20.2 20.1 20.0 22.2 22.5 22.9 23.4 23.9 24.3 24.5 24.2 23.7 23.4 23.1 22.8 22.4 22.1 21.7 21.5 21.2 21.0 20.9 20.7 20.6 20.5 20.3 20.2 20.1 20.0 22.7 23.0 23.4 24.1 24.9 25.9 26.1 25.3 24.6 24.1 23.7 23.2 22.7 22.2 21.9 21.6 21.3 21.1 21.0 20.8 20.6 20.5 20.4 20.2 20.1 20.1 23.2 23.8 24.4 25.7 27.0 29.0 32.4 30.8 26.4 25.0 24.2 23.5 23.0 22.5 22.1 21.8 21.5 21.3 21.1 20.9 20.7 20.6 20.4 20.3 20.1 20.1 23.9 24.7 25.8 28.6 32.1 43.3 59.3 54.6 35.3 26.1 24.9 24.0 23.3 22.8 22.4 22.1 21.8 21.6 21.3 21.0 20.8 20.6 20.4 20.3 20.1 20.1 26.0 27.8 29.4 38.6 68.3 112.3 133.2 98.4 47.4 27.9 25.6 24.7 23.9 23.2 22.8 22.4 22.1 21.8 21.4 21.2 20.9 20.7 20.5 20.3 20.1 20.1 27.8 30.7 36.4 71.2 162.7 264.9 270.8 153.7 51.6 29.7 26.9 25.8 24.7 23.8 23.2 22.6 22.2 21.8 21.5 21.2 20.9 20.7 20.5 20.3 20.2 20.1 28.4 31.1 39.2 86.1 227.3 406.4 393.5 184.4 49.8 31.2 28.4 26.9 25.4 24.3 23.5 22.8 22.3 21.8 21.4 21.2 20.9 20.7 20.5 20.3 20.2 20.1 28.5 30.6 35.7 68.4 210.2 403.7 399.1 198.0 58.0 31.9 28.4 26.8 25.5 24.5 23.5 22.8 22.3 21.8 21.4 21.2 20.9 20.7 20.5 20.3 20.2 20.1 26.9 28.4 32.7 53.9 127.5 211.4 216.4 134.4 54.0 30.1 27.1 25.7 24.9 24.0 23.2 22.6 22.1 21.8 21.4 21.1 20.9 20.7 20.5 20.3 20.1 20.1 25.2 26.4 30.3 42.0 51.3 51.3 50.6 46.1 35.0 27.2 25.6 24.6 23.9 23.3 22.8 22.3 21.9 21.6 21.3 21.0 20.8 20.6 20.5 20.3 20.1 20.1 23.5 25.4 27.4 31.7 33.0 31.8 32.7 31.6 28.1 25.7 24.7 23.9 23.3 22.8 22.4 22.0 21.6 21.4 21.1 20.9 20.7 20.6 20.4 20.3 20.1 20.1 20.0 20.0 20.0 20.0 20.0 20.0 20.0 20.0 20.0 20.0 20.0 20.0 20.0 20.0 20.0 20.0 20.0 20.0 20.0 20.0 20.0 20.0 20.0 20.0 20.0 20.0 20.1 20.1 20.1 20.1 20.1 20.1 20.1 20.1 20.1 20.1 20.1 20.1 20.1 20.1 20.1 20.1 20.1 20.0 20.0 20.0 20.0 20.0 20.0 20.0 20.0 20.0 20.1 20.1 20.1 20.2 20.2 20.2 20.2 20.2 20.2 20.2 20.2 20.1 20.1 20.1 20.1 20.1 20.1 20.1 20.1 20.1 20.1 20.1 20.1 20.1 20.0 20.0 20.2 20.2 20.2 20.2 20.3 20.3 20.3 20.3 20.3 20.3 20.3 20.2 20.2 20.2 20.2 20.2 20.2 20.2 20.1 20.1 20.1 20.1 20.1 20.1 20.0 20.0 20.3 20.3 20.3 20.4 20.4 20.4 20.4 20.4 20.4 20.4 20.4 20.3 20.3 20.3 20.3 20.2 20.2 20.2 20.2 20.2 20.2 20.2 20.1 20.1 20.0 20.0 20.4 20.4 20.4 20.5 20.5 20.5 20.5 20.5 20.6 20.5 20.5 20.4 20.4 20.4 20.3 20.3 20.3 20.3 20.3 20.3 20.3 20.2 20.1 20.1 20.0 20.0 20.5 20.5 20.5 20.6 20.7 20.7 20.7 20.7 20.7 20.7 20.6 20.5 20.5 20.5 20.4 20.4 20.4 20.4 20.4 20.4 20.3 20.2 20.1 20.1 20.0 20.0 20.6 20.6 20.7 20.8 20.8 20.8 20.8 20.8 20.9 20.8 20.7 20.6 20.6 20.6 20.5 20.5 20.5 20.5 20.5 20.4 20.3 20.2 20.2 20.1 20.0 20.0 20.7 20.8 20.8 20.9 21.0 21.0 21.0 21.0 21.0 21.0 20.8 20.8 20.7 20.7 20.7 20.7 20.7 20.7 20.6 20.4 20.3 20.2 20.2 20.1 20.1 20.0 20.8 20.9 21.0 21.2 21.2 21.3 21.3 21.3 21.3 21.1 21.0 20.9 20.9 20.9 20.8 20.9 20.8 20.7 20.5 20.4 20.3 20.3 20.2 20.1 20.1 20.0 21.0 21.1 21.2 21.4 21.5 21.5 21.6 21.6 21.5 21.3 21.2 21.1 21.1 21.1 21.1 21.0 20.9 20.7 20.6 20.4 20.4 20.3 20.2 20.1 20.1 20.0 21.2 21.3 21.5 21.6 21.8 21.8 21.9 21.9 21.8 21.6 21.4 21.3 21.3 21.3 21.3 21.1 20.9 20.7 20.6 20.5 20.4 20.3 20.2 20.1 20.1 20.0 21.4 21.5 21.7 22.0 22.2 22.3 22.4 22.4 22.1 21.9 21.7 21.6 21.6 21.6 21.4 21.1 20.9 20.8 20.6 20.5 20.4 20.3 20.2 20.2 20.1 20.0 21.6 21.8 22.1 22.3 22.6 22.8 23.0 22.9 22.5 22.3 22.2 22.1 22.0 21.8 21.4 21.2 21.0 20.9 20.7 20.6 20.5 20.4 20.3 20.2 20.1 20.0 21.9 22.2 22.4 22.8 23.2 23.5 23.8 23.6 23.1 22.8 22.7 22.5 22.3 21.9 21.6 21.3 21.1 21.0 20.8 20.7 20.5 20.4 20.3 20.2 20.1 20.0 22.3 22.7 23.1 23.5 24.0 24.5 24.8 24.5 23.8 23.5 23.3 22.9 22.5 22.1 21.7 21.5 21.3 21.1 20.9 20.7 20.6 20.4 20.3 20.2 20.1 20.0 22.8 23.3 24.3 24.9 25.5 27.0 27.6 26.2 24.9 24.4 23.9 23.3 22.7 22.3 21.9 21.7 21.4 21.2 21.0 20.8 20.6 20.5 20.3 20.2 20.1 20.0 23.5 24.2 26.4 28.1 28.4 32.9 38.4 34.4 27.4 25.4 24.6 23.7 23.1 22.6 22.2 21.8 21.5 21.3 21.1 20.9 20.7 20.5 20.4 20.2 20.1 20.1 24.3 25.8 30.6 35.0 36.4 62.8 94.5 78.9 42.5 26.9 25.3 24.3 23.5 22.9 22.4 22.1 21.8 21.5 21.2 21.0 20.8 20.6 20.4 20.3 20.1 20.1 28.1 34.2 42.8 57.7 103.8 192.2 244.3 186.7 83.2 32.4 26.2 24.9 24.1 23.4 22.8 22.4 22.0 21.7 21.4 21.1 20.9 20.7 20.5 20.3 20.1 20.1 32.1 44.7 70.9 142.6 256.4 358.2 389.2 269.2 100.5 35.8 27.7 26.1 25.0 24.0 23.3 22.7 22.2 21.9 21.5 21.2 21.0 20.7 20.5 20.3 20.1 20.1 33.1 45.3 84.5 196.8 340.2 418.7 402.3 239.3 73.8 35.2 29.6 27.6 25.9 24.6 23.7 23.0 22.4 22.0 21.6 21.3 21.0 20.7 20.5 20.3 20.1 20.1 32.9 39.5 68.1 160.7 306.5 394.1 375.9 241.5 90.3 38.4 30.1 27.7 26.1 24.9 23.8 23.1 22.5 22.0 21.6 21.3 21.0 20.7 20.5 20.3 20.2 20.1 29.8 32.9 51.0 110.0 196.6 235.6 232.0 185.2 90.6 36.8 28.6 26.5 25.2 24.3 23.5 22.8 22.3 21.9 21.5 21.2 20.9 20.7 20.5 20.3 20.2 20.1 25.9 27.9 37.9 63.1 81.5 71.9 63.0 61.5 45.1 30.0 26.5 25.1 24.2 23.6 23.0 22.4 22.0 21.7 21.4 21.1 20.9 20.7 20.5 20.3 20.1 20.1 23.7 25.9 28.5 35.8 40.1 37.5 35.9 34.1 29.9 26.6 25.2 24.2 23.6 23.0 22.5 22.1 21.7 21.4 21.2 20.9 20.7 20.6 20.4 20.3 20.1 20.1 20.0 20.0 20.0 20.0 20.0 20.0 20.0 20.0 20.0 20.0 20.0 20.0 20.0 20.0 20.0 20.0 20.0 20.0 20.0 20.0 20.0 20.0 20.0 20.0 20.0 20.0 20.1 20.1 20.1 20.1 20.1 20.1 20.1 20.1 20.1 20.1 20.1 20.1 20.1 20.1 20.1 20.1 20.1 20.1 20.1 20.0 20.0 20.0 20.0 20.0 20.0 20.0 20.1 20.2 20.2 20.2 20.2 20.2 20.2 20.2 20.2 20.2 20.2 20.2 20.1 20.1 20.1 20.1 20.1 20.1 20.1 20.1 20.1 20.1 20.1 20.1 20.0 20.0 20.2 20.2 20.3 20.3 20.3 20.3 20.3 20.3 20.3 20.3 20.3 20.2 20.2 20.2 20.2 20.2 20.2 20.2 20.2 20.2 20.2 20.1 20.1 20.1 20.0 20.0 20.3 20.3 20.4 20.4 20.4 20.4 20.4 20.5 20.5 20.4 20.4 20.3 20.3 20.3 20.3 20.3 20.3 20.3 20.2 20.2 20.2 20.2 20.2 20.1 20.0 20.0 20.4 20.4 20.5 20.5 20.5 20.6 20.6 20.6 20.6 20.6 20.5 20.5 20.4 20.4 20.4 20.4 20.4 20.3 20.3 20.3 20.3 20.2 20.2 20.1 20.0 20.0 20.5 20.6 20.6 20.7 20.7 20.7 20.7 20.7 20.7 20.7 20.6 20.6 20.5 20.5 20.5 20.5 20.5 20.4 20.4 20.4 20.3 20.3 20.2 20.1 20.0 20.0 20.6 20.7 20.8 20.8 20.9 20.9 20.9 20.9 20.9 20.9 20.8 20.7 20.7 20.6 20.6 20.6 20.6 20.6 20.5 20.5 20.4 20.3 20.2 20.1 20.1 20.0 20.8 20.9 20.9 21.0 21.1 21.1 21.1 21.1 21.1 21.0 20.9 20.8 20.8 20.8 20.8 20.7 20.7 20.7 20.6 20.5 20.4 20.3 20.2 20.1 20.1 20.0 20.9 21.0 21.1 21.2 21.3 21.3 21.3 21.4 21.3 21.2 21.1 21.0 21.0 21.0 20.9 20.9 20.8 20.7 20.6 20.5 20.4 20.3 20.2 20.1 20.1 20.0 21.1 21.2 21.3 21.5 21.5 21.6 21.6 21.7 21.6 21.4 21.3 21.2 21.2 21.2 21.1 21.1 20.9 20.8 20.6 20.5 20.4 20.3 20.2 20.2 20.1 20.0 21.2 21.4 21.6 21.7 21.8 21.9 22.0 22.0 21.9 21.7 21.5 21.4 21.4 21.4 21.3 21.2 21.0 20.8 20.7 20.6 20.5 20.4 20.3 20.2 20.1 20.0 21.5 21.6 21.8 22.0 22.2 22.3 22.4 22.4 22.2 22.0 21.8 21.7 21.7 21.6 21.4 21.2 21.0 20.9 20.7 20.6 20.5 20.4 20.3 20.2 20.1 20.0 21.7 21.9 22.2 22.4 22.6 22.8 23.0 23.0 22.6 22.4 22.2 22.2 22.0 21.8 21.5 21.3 21.1 21.0 20.8 20.7 20.6 20.4 20.3 20.2 20.1 20.0 22.0 22.3 22.6 22.8 23.1 23.4 23.7 23.6 23.2 22.9 22.8 22.6 22.3 22.0 21.7 21.4 21.3 21.1 20.9 20.8 20.6 20.5 20.3 20.2 20.1 20.0 22.5 23.1 23.6 23.7 23.9 24.3 24.7 24.5 23.9 23.6 23.4 23.0 22.5 22.2 21.8 21.6 21.4 21.2 21.0 20.8 20.6 20.5 20.3 20.2 20.1 20.0 23.1 24.2 25.8 26.0 25.9 27.2 27.9 26.6 25.1 24.5 24.0 23.4 22.9 22.4 22.1 21.8 21.5 21.3 21.1 20.9 20.7 20.5 20.4 20.2 20.1 20.1 23.8 26.4 30.6 30.7 27.7 31.7 36.6 32.4 27.2 25.6 24.7 23.9 23.2 22.7 22.3 21.9 21.6 21.4 21.1 20.9 20.7 20.5 20.4 20.3 20.1 20.1 26.2 34.2 43.9 42.8 33.2 56.7 84.7 67.0 38.8 27.1 25.4 24.4 23.7 23.0 22.5 22.1 21.8 21.5 21.2 21.0 20.8 20.6 20.5 20.3 20.1 20.1 34.2 55.4 75.4 78.4 77.4 160.9 241.4 194.7 93.4 33.1 26.4 25.0 24.2 23.5 22.9 22.4 22.0 21.7 21.4 21.1 20.9 20.7 20.5 20.3 20.1 20.1 49.0 87.9 145.7 208.4 202.7 271.3 373.6 286.8 122.5 37.2 28.1 26.3 25.1 24.1 23.4 22.8 22.3 21.9 21.6 21.3 21.0 20.7 20.5 20.3 20.1 20.1 50.0 93.2 186.0 303.4 284.8 282.1 352.6 245.5 92.2 38.9 30.2 27.9 26.2 24.9 23.9 23.1 22.6 22.1 21.7 21.3 21.0 20.8 20.5 20.3 20.2 20.1 39.9 70.3 152.6 262.5 258.8 256.4 310.8 239.9 112.3 44.4 31.2 28.0 26.2 25.1 24.1 23.2 22.6 22.1 21.7 21.3 21.0 20.8 20.5 20.3 20.2 20.1 34.1 47.1 98.8 178.1 191.9 183.6 199.8 183.3 109.4 41.2 29.6 26.8 25.3 24.4 23.7 23.0 22.4 22.0 21.6 21.3 21.0 20.8 20.5 20.3 20.2 20.1 28.0 31.0 50.4 83.6 98.6 83.3 68.5 69.3 52.9 31.4 27.1 25.4 24.4 23.7 23.2 22.6 22.2 21.8 21.5 21.2 21.0 20.7 20.5 20.3 20.2 20.1 24.0 26.2 28.6 34.7 40.5 40.1 38.3 36.3 31.1 27.0 25.6 24.6 23.8 23.3 22.8 22.3 21.9 21.6 21.3 21.1 20.8 20.6 20.5 20.3 20.1 20.1 20.0 20.0 20.1 20.1 20.1 20.1 20.0 20.0 20.0 20.1 20.0 20.0 20.0 20.0 20.0 20.0 20.0 20.0 20.0 20.0 20.0 20.0 20.0 20.0 20.0 20.0 20.1 20.1 20.1 20.1 20.1 20.1 20.1 20.1 20.1 20.1 20.1 20.1 20.1 20.1 20.1 20.1 20.1 20.1 20.1 20.1 20.1 20.1 20.1 20.0 20.0 20.0 20.2 20.2 20.2 20.2 20.2 20.2 20.2 20.2 20.2 20.2 20.2 20.2 20.2 20.2 20.2 20.1 20.1 20.1 20.1 20.1 20.1 20.1 20.1 20.1 20.0 20.0 20.2 20.3 20.3 20.3 20.3 20.3 20.3 20.3 20.4 20.4 20.3 20.3 20.3 20.3 20.2 20.2 20.2 20.2 20.2 20.2 20.2 20.2 20.2 20.1 20.1 20.0 20.3 20.4 20.4 20.4 20.5 20.5 20.5 20.5 20.5 20.5 20.4 20.4 20.4 20.4 20.4 20.3 20.3 20.3 20.3 20.3 20.3 20.2 20.2 20.1 20.1 20.0 20.5 20.5 20.5 20.6 20.6 20.6 20.6 20.6 20.6 20.6 20.6 20.5 20.5 20.5 20.5 20.4 20.4 20.4 20.4 20.4 20.4 20.3 20.2 20.1 20.1 20.0 20.6 20.6 20.7 20.7 20.7 20.7 20.8 20.8 20.8 20.8 20.7 20.6 20.6 20.6 20.6 20.6 20.5 20.5 20.5 20.5 20.4 20.3 20.2 20.1 20.1 20.0 20.7 20.8 20.8 20.9 20.9 20.9 20.9 21.0 21.0 20.9 20.8 20.8 20.7 20.7 20.7 20.7 20.7 20.6 20.6 20.5 20.4 20.3 20.2 20.1 20.1 20.0 20.8 20.9 21.0 21.1 21.1 21.1 21.1 21.2 21.2 21.1 21.0 20.9 20.9 20.9 20.8 20.8 20.8 20.7 20.6 20.5 20.4 20.3 20.2 20.1 20.1 20.0 21.0 21.1 21.2 21.3 21.3 21.3 21.4 21.4 21.4 21.3 21.2 21.1 21.1 21.1 21.0 21.0 20.9 20.8 20.7 20.6 20.5 20.3 20.2 20.2 20.1 20.0 21.1 21.3 21.4 21.5 21.6 21.6 21.7 21.7 21.6 21.5 21.4 21.3 21.3 21.3 21.2 21.1 21.0 20.9 20.7 20.6 20.5 20.4 20.3 20.2 20.1 20.0 21.3 21.5 21.6 21.8 21.9 21.9 22.0 22.0 22.0 21.8 21.7 21.6 21.5 21.5 21.3 21.2 21.1 20.9 20.8 20.7 20.5 20.4 20.3 20.2 20.1 20.0 21.5 21.7 21.9 22.0 22.2 22.3 22.4 22.5 22.3 22.1 22.0 21.9 21.8 21.7 21.5 21.3 21.2 21.0 20.9 20.7 20.6 20.4 20.3 20.2 20.1 20.0 21.8 22.0 22.2 22.4 22.5 22.7 22.9 23.0 22.7 22.5 22.3 22.2 22.1 21.9 21.6 21.4 21.3 21.1 20.9 20.8 20.6 20.5 20.3 20.2 20.1 20.0 22.2 22.5 22.7 22.8 23.0 23.3 23.6 23.6 23.3 23.0 22.8 22.6 22.3 22.1 21.8 21.6 21.4 21.2 21.0 20.8 20.7 20.5 20.4 20.2 20.1 20.1 22.7 23.7 24.2 23.7 23.7 24.0 24.5 24.5 24.0 23.7 23.4 23.0 22.7 22.3 22.0 21.8 21.5 21.3 21.1 20.9 20.7 20.5 20.4 20.2 20.1 20.1 23.7 25.6 27.1 26.5 25.5 26.1 26.9 26.3 25.1 24.5 24.0 23.5 23.0 22.6 22.2 21.9 21.7 21.4 21.1 20.9 20.7 20.5 20.4 20.2 20.1 20.1 25.8 30.3 33.8 30.3 26.2 28.7 31.3 29.4 26.7 25.4 24.7 24.0 23.4 22.9 22.5 22.1 21.8 21.5 21.2 21.0 20.8 20.6 20.4 20.3 20.1 20.1 34.6 52.0 58.3 41.3 28.6 39.8 51.5 44.6 32.4 26.6 25.4 24.5 23.8 23.2 22.7 22.3 21.9 21.6 21.4 21.1 20.9 20.7 20.5 20.3 20.2 20.1 53.3 99.6 111.6 73.6 50.6 102.1 155.3 132.7 68.6 29.6 26.3 25.2 24.3 23.6 23.0 22.5 22.1 21.8 21.5 21.2 21.0 20.7 20.5 20.3 20.2 20.1 84.4 160.9 212.2 177.4 107.7 169.9 266.4 215.9 94.8 33.5 28.0 26.4 25.2 24.2 23.5 22.9 22.4 22.0 21.7 21.3 21.0 20.7 20.5 20.3 20.2 20.1 88.8 176.6 272.6 253.2 156.7 204.3 293.1 215.4 87.3 38.6 30.0 27.8 26.2 25.0 24.0 23.2 22.6 22.1 21.7 21.3 21.0 20.7 20.5 20.3 20.2 20.1 66.9 139.3 234.3 223.5 154.6 205.5 259.0 201.1 102.5 42.0 30.9 28.1 26.4 25.1 24.2 23.3 22.6 22.1 21.7 21.3 21.0 20.8 20.5 20.3 20.2 20.1 54.8 87.0 149.5 172.4 144.6 156.3 159.5 138.5 89.9 37.1 29.6 27.1 25.5 24.6 23.8 23.1 22.5 22.0 21.6 21.3 21.0 20.8 20.6 20.4 20.2 20.1 41.1 45.0 65.0 92.6 95.7 84.6 70.4 61.3 45.9 29.9 27.3 25.8 24.7 23.9 23.3 22.8 22.3 21.9 21.5 21.3 21.0 20.8 20.6 20.4 20.2 20.1 27.8 30.1 30.4 33.7 37.0 37.8 38.8 35.9 29.9 27.0 25.9 25.0 24.1 23.5 22.9 22.5 22.1 21.7 21.4 21.1 20.9 20.7 20.5 20.3 20.2 20.1 20.0 20.0 20.0 20.1 20.1 20.1 20.0 20.0 20.1 20.1 20.0 20.0 20.0 20.0 20.0 20.0 20.0 20.0 20.0 20.0 20.0 20.0 20.0 20.0 20.0 20.0 20.1 20.1 20.1 20.1 20.1 20.1 20.1 20.1 20.1 20.1 20.1 20.1 20.1 20.1 20.1 20.1 20.1 20.1 20.1 20.1 20.1 20.1 20.1 20.1 20.0 20.0 20.2 20.2 20.2 20.2 20.2 20.2 20.2 20.2 20.2 20.2 20.2 20.2 20.2 20.2 20.2 20.2 20.2 20.2 20.2 20.1 20.2 20.2 20.1 20.1 20.1 20.0 20.3 20.3 20.3 20.3 20.3 20.3 20.3 20.4 20.4 20.4 20.3 20.3 20.3 20.3 20.3 20.3 20.3 20.3 20.2 20.2 20.2 20.2 20.2 20.1 20.1 20.0 20.4 20.4 20.4 20.4 20.4 20.4 20.5 20.5 20.5 20.5 20.5 20.4 20.4 20.4 20.4 20.4 20.4 20.4 20.4 20.4 20.4 20.3 20.2 20.2 20.1 20.0 20.5 20.5 20.6 20.6 20.6 20.6 20.6 20.7 20.7 20.7 20.6 20.6 20.5 20.5 20.5 20.5 20.5 20.5 20.5 20.5 20.4 20.3 20.2 20.2 20.1 20.0 20.6 20.6 20.7 20.7 20.7 20.7 20.8 20.8 20.8 20.8 20.8 20.7 20.7 20.7 20.6 20.6 20.6 20.6 20.6 20.5 20.5 20.3 20.2 20.2 20.1 20.0 20.7 20.8 20.9 20.9 20.9 20.9 21.0 21.0 21.0 21.0 20.9 20.8 20.8 20.8 20.8 20.8 20.7 20.7 20.7 20.6 20.5 20.4 20.2 20.2 20.1 20.0 20.9 20.9 21.0 21.1 21.1 21.1 21.1 21.2 21.2 21.2 21.1 21.0 21.0 21.0 20.9 20.9 20.8 20.8 20.7 20.6 20.5 20.4 20.3 20.2 20.1 20.0 21.0 21.1 21.2 21.3 21.3 21.3 21.4 21.5 21.4 21.4 21.3 21.2 21.2 21.1 21.1 21.0 20.9 20.9 20.8 20.6 20.5 20.4 20.3 20.2 20.1 20.0 21.2 21.3 21.4 21.5 21.6 21.6 21.7 21.8 21.7 21.6 21.5 21.4 21.4 21.3 21.3 21.2 21.0 20.9 20.8 20.7 20.5 20.4 20.3 20.2 20.1 20.0 21.4 21.5 21.6 21.8 21.8 21.9 22.0 22.1 22.0 21.9 21.8 21.7 21.6 21.5 21.4 21.3 21.1 21.0 20.9 20.7 20.6 20.5 20.3 20.2 20.1 20.0 21.6 21.7 21.9 22.0 22.1 22.3 22.4 22.5 22.4 22.2 22.1 22.0 21.9 21.7 21.5 21.4 21.3 21.1 20.9 20.8 20.6 20.5 20.3 20.2 20.1 20.0 21.9 22.0 22.2 22.4 22.5 22.7 22.9 22.9 22.8 22.6 22.5 22.3 22.1 21.9 21.7 21.6 21.4 21.2 21.0 20.8 20.7 20.5 20.4 20.2 20.1 20.0 22.2 22.5 22.7 22.8 23.0 23.2 23.5 23.6 23.4 23.1 22.9 22.6 22.4 22.1 21.9 21.7 21.5 21.3 21.1 20.9 20.7 20.5 20.4 20.2 20.1 20.1 22.9 24.0 24.2 23.6 23.5 23.8 24.3 24.4 24.1 23.8 23.4 23.0 22.7 22.4 22.1 21.9 21.6 21.4 21.1 20.9 20.7 20.5 20.4 20.2 20.1 20.1 24.2 26.5 27.3 26.0 24.9 25.2 25.9 25.7 24.9 24.4 23.9 23.5 23.1 22.7 22.4 22.0 21.7 21.4 21.2 20.9 20.7 20.6 20.4 20.3 20.1 20.1 29.4 33.9 32.1 27.3 26.4 27.8 28.1 27.3 25.9 25.1 24.6 24.0 23.5 23.0 22.6 22.2 21.9 21.6 21.3 21.0 20.8 20.6 20.4 20.3 20.1 20.1 46.3 66.0 55.2 30.7 28.7 32.7 32.9 31.3 28.0 26.1 25.3 24.6 23.8 23.3 22.8 22.4 22.0 21.7 21.4 21.2 20.9 20.7 20.5 20.3 20.2 20.1 73.2 130.4 106.7 45.4 47.9 63.6 68.4 64.4 41.9 27.9 26.2 25.2 24.3 23.6 23.2 22.7 22.3 21.9 21.6 21.3 21.0 20.8 20.5 20.3 20.2 20.1 123.9 210.1 182.6 81.6 73.5 105.4 121.5 112.8 60.3 31.4 27.7 26.3 25.1 24.2 23.6 23.0 22.5 22.1 21.7 21.3 21.0 20.8 20.5 20.3 20.2 20.1 151.3 242.6 224.0 120.4 124.2 176.9 193.6 154.3 69.8 35.7 29.6 27.5 26.0 24.8 24.0 23.3 22.7 22.1 21.7 21.3 21.0 20.7 20.5 20.3 20.2 20.1 130.5 205.8 195.6 135.2 181.5 242.2 225.1 161.2 78.9 37.7 30.5 28.0 26.3 25.0 24.1 23.3 22.7 22.1 21.6 21.3 21.0 20.7 20.5 20.3 20.2 20.1 100.0 136.6 143.6 141.0 174.2 202.8 164.0 110.0 66.9 35.1 29.5 27.2 25.8 24.6 23.8 23.1 22.5 22.0 21.6 21.3 21.0 20.8 20.6 20.4 20.2 20.1 59.2 69.4 79.0 93.1 98.9 103.7 88.3 60.0 41.0 30.2 27.4 26.0 25.0 24.1 23.4 22.8 22.3 21.9 21.5 21.3 21.0 20.8 20.6 20.4 20.2 20.1 29.9 35.3 34.8 34.6 37.5 41.4 43.4 37.8 30.4 27.2 26.0 25.1 24.3 23.6 23.0 22.5 22.1 21.7 21.4 21.1 20.9 20.7 20.5 20.4 20.2 20.1 20.0 20.0 20.1 20.1 20.0 20.0 20.0 20.0 20.0 20.1 20.1 20.0 20.0 20.0 20.0 20.0 20.0 20.0 20.0 20.0 20.0 20.0 20.0 20.0 20.0 20.0 20.1 20.1 20.1 20.1 20.1 20.1 20.1 20.1 20.1 20.1 20.1 20.1 20.1 20.1 20.1 20.1 20.1 20.1 20.1 20.1 20.1 20.1 20.1 20.1 20.1 20.0 20.2 20.2 20.2 20.2 20.2 20.2 20.2 20.2 20.2 20.2 20.2 20.2 20.2 20.2 20.2 20.2 20.2 20.2 20.2 20.2 20.2 20.2 20.2 20.1 20.1 20.0 20.3 20.3 20.3 20.3 20.3 20.3 20.3 20.4 20.4 20.4 20.4 20.3 20.3 20.3 20.3 20.3 20.3 20.3 20.3 20.3 20.3 20.3 20.2 20.2 20.1 20.0 20.4 20.4 20.4 20.5 20.5 20.4 20.4 20.5 20.5 20.5 20.5 20.5 20.4 20.4 20.4 20.4 20.4 20.4 20.4 20.4 20.4 20.4 20.3 20.2 20.1 20.0 20.5 20.5 20.6 20.6 20.6 20.6 20.6 20.7 20.7 20.7 20.7 20.6 20.6 20.6 20.6 20.6 20.5 20.5 20.5 20.5 20.5 20.4 20.3 20.2 20.1 20.0 20.6 20.7 20.7 20.8 20.8 20.7 20.7 20.8 20.9 20.9 20.9 20.8 20.7 20.7 20.7 20.7 20.7 20.7 20.6 20.6 20.5 20.4 20.3 20.2 20.1 20.0 20.8 20.8 20.9 20.9 20.9 20.9 20.9 21.0 21.0 21.0 21.0 20.9 20.9 20.9 20.9 20.8 20.8 20.8 20.7 20.6 20.5 20.4 20.3 20.2 20.1 20.0 20.9 21.0 21.0 21.1 21.1 21.1 21.1 21.2 21.2 21.2 21.2 21.1 21.1 21.1 21.0 21.0 20.9 20.8 20.8 20.6 20.5 20.4 20.3 20.2 20.1 20.0 21.0 21.1 21.2 21.3 21.3 21.3 21.4 21.5 21.5 21.4 21.4 21.3 21.3 21.2 21.2 21.1 21.0 20.9 20.8 20.7 20.5 20.4 20.3 20.2 20.1 20.0 21.2 21.3 21.4 21.5 21.6 21.6 21.7 21.8 21.8 21.7 21.7 21.6 21.5 21.4 21.3 21.2 21.1 21.0 20.9 20.7 20.6 20.4 20.3 20.2 20.1 20.0 21.4 21.5 21.6 21.8 21.9 21.9 22.0 22.1 22.1 22.0 21.9 21.8 21.7 21.6 21.4 21.3 21.2 21.1 20.9 20.8 20.6 20.5 20.3 20.2 20.1 20.0 21.7 21.8 21.9 22.0 22.1 22.2 22.4 22.5 22.5 22.4 22.2 22.1 21.9 21.8 21.6 21.5 21.3 21.2 21.0 20.8 20.6 20.5 20.3 20.2 20.1 20.0 22.1 22.2 22.2 22.3 22.5 22.7 22.8 22.9 22.9 22.8 22.6 22.4 22.2 22.0 21.8 21.7 21.5 21.3 21.0 20.8 20.7 20.5 20.4 20.2 20.1 20.0 22.4 22.6 22.6 22.7 22.9 23.1 23.4 23.5 23.5 23.3 23.0 22.7 22.4 22.2 22.1 21.8 21.6 21.3 21.1 20.9 20.7 20.5 20.4 20.2 20.1 20.0 22.8 23.6 23.8 23.3 23.3 23.6 24.0 24.2 24.1 23.7 23.4 23.0 22.8 22.6 22.3 22.0 21.7 21.4 21.1 20.9 20.7 20.5 20.4 20.2 20.1 20.0 24.0 26.0 26.3 25.1 24.5 24.6 25.1 25.1 24.7 24.3 23.8 23.5 23.2 22.9 22.6 22.2 21.8 21.5 21.2 20.9 20.7 20.5 20.4 20.2 20.1 20.1 29.4 32.2 28.3 26.0 26.4 26.1 26.4 26.3 25.6 24.9 24.5 24.0 23.6 23.2 22.8 22.4 21.9 21.6 21.3 21.0 20.8 20.6 20.4 20.3 20.1 20.1 43.8 52.6 37.3 26.1 28.1 27.7 27.7 27.8 27.0 25.9 25.2 24.6 24.1 23.6 23.1 22.5 22.1 21.7 21.4 21.1 20.9 20.7 20.5 20.3 20.1 20.1 70.3 96.7 60.3 31.9 36.7 34.8 34.8 34.5 30.5 27.4 26.2 25.3 24.5 23.9 23.3 22.8 22.3 22.0 21.6 21.3 21.0 20.7 20.5 20.3 20.2 20.1 122.4 157.2 88.8 45.4 53.0 48.6 51.7 55.8 43.7 31.0 28.0 26.1 25.1 24.4 23.7 23.1 22.6 22.1 21.7 21.3 21.0 20.8 20.5 20.3 20.2 20.1 169.7 197.1 120.3 94.2 112.5 106.6 117.6 103.6 59.9 36.3 30.7 27.3 25.9 24.9 24.1 23.4 22.7 22.1 21.6 21.2 20.9 20.7 20.5 20.3 20.2 20.1 168.9 191.0 142.8 160.2 204.1 201.7 192.7 138.3 72.7 41.8 32.1 28.0 26.3 25.1 24.2 23.4 22.7 22.1 21.6 21.2 20.9 20.7 20.5 20.3 20.2 20.1 123.5 146.5 132.8 153.4 187.2 203.1 184.4 122.3 73.7 45.6 31.5 27.3 26.0 24.9 23.9 23.1 22.5 22.0 21.6 21.2 20.9 20.7 20.5 20.3 20.2 20.1 62.7 81.9 83.3 81.3 88.1 112.0 113.0 79.2 53.1 38.2 28.8 26.2 25.3 24.3 23.5 22.8 22.3 21.9 21.5 21.2 21.0 20.7 20.6 20.4 20.2 20.1 28.9 37.9 39.1 35.1 38.0 47.5 51.0 42.8 33.7 28.6 26.1 25.2 24.6 23.8 23.2 22.6 22.1 21.7 21.4 21.1 20.9 20.7 20.5 20.3 20.2 20.1 20.0 20.0 20.1 20.1 20.1 20.0 20.0 20.0 20.0 20.1 20.1 20.0 20.0 20.0 20.0 20.0 20.0 20.1 20.1 20.1 20.1 20.1 20.1 20.1 20.1 20.0 20.1 20.1 20.1 20.1 20.1 20.1 20.1 20.1 20.1 20.1 20.1 20.1 20.1 20.1 20.1 20.1 20.1 20.1 20.1 20.1 20.1 20.1 20.1 20.1 20.1 20.1 20.2 20.2 20.2 20.2 20.2 20.2 20.2 20.2 20.2 20.2 20.2 20.2 20.2 20.2 20.2 20.2 20.2 20.2 20.2 20.2 20.2 20.2 20.2 20.2 20.1 20.1 20.3 20.3 20.3 20.4 20.4 20.3 20.3 20.4 20.4 20.4 20.4 20.4 20.3 20.3 20.3 20.3 20.3 20.3 20.3 20.3 20.3 20.3 20.3 20.2 20.1 20.0 20.4 20.4 20.5 20.5 20.5 20.5 20.4 20.5 20.5 20.5 20.5 20.5 20.5 20.4 20.4 20.4 20.4 20.4 20.5 20.4 20.4 20.4 20.3 20.2 20.1 20.1 20.6 20.6 20.6 20.7 20.7 20.6 20.6 20.6 20.7 20.7 20.8 20.7 20.6 20.6 20.6 20.6 20.6 20.6 20.6 20.6 20.5 20.4 20.3 20.2 20.1 20.1 20.7 20.8 20.8 20.9 20.8 20.8 20.8 20.8 20.9 20.9 21.0 20.9 20.8 20.8 20.8 20.8 20.7 20.7 20.7 20.6 20.6 20.4 20.3 20.2 20.1 20.0 20.8 20.9 21.0 21.0 21.0 21.0 20.9 21.0 21.0 21.1 21.2 21.2 21.1 21.0 21.0 20.9 20.9 20.8 20.8 20.7 20.6 20.4 20.3 20.2 20.1 20.0 20.9 21.0 21.1 21.2 21.2 21.2 21.2 21.2 21.2 21.3 21.4 21.3 21.2 21.2 21.1 21.0 21.0 20.9 20.8 20.7 20.6 20.4 20.3 20.2 20.1 20.0 21.0 21.1 21.3 21.4 21.4 21.4 21.4 21.5 21.5 21.5 21.6 21.5 21.4 21.3 21.2 21.1 21.1 21.0 20.9 20.7 20.6 20.5 20.3 20.2 20.1 20.0 21.2 21.3 21.4 21.6 21.7 21.6 21.7 21.8 21.8 21.8 21.8 21.7 21.6 21.5 21.4 21.2 21.1 21.0 20.9 20.8 20.6 20.5 20.3 20.2 20.1 20.1 21.5 21.5 21.6 21.8 21.9 22.0 22.0 22.1 22.2 22.2 22.1 21.9 21.8 21.6 21.5 21.4 21.3 21.2 21.0 20.9 20.7 20.5 20.3 20.2 20.1 20.1 21.8 21.9 21.9 22.1 22.2 22.3 22.4 22.5 22.6 22.6 22.4 22.1 22.0 21.8 21.7 21.5 21.4 21.3 21.1 20.9 20.7 20.5 20.3 20.2 20.1 20.0 22.2 22.3 22.3 22.4 22.5 22.7 22.8 23.0 23.1 23.0 22.7 22.4 22.2 22.0 21.9 21.7 21.5 21.3 21.1 20.9 20.7 20.5 20.3 20.2 20.1 20