<?xml version="1.0"?>
<VTKFile type="RectilinearGrid" version="1.0" byte_order="LittleEndian" header_type="UInt64">
<RectilinearGrid WholeExtent="0 25 25 50 0 15">
<Piece Extent="0 25 25 50 0 15">
<Coordinates>
<DataArray type="Float64" Name="Array X-Axis" format="ascii" RangeMin="0.0" RangeMax="15.0">
0.0 0.6 1.2 1.8 2.4 3.0 3.6 4.2 4.8 5.4 6.0 6.6 7.2 7.8 8.4 9.0 9.6 10.2 10.8 11.4 12.0 12.6 13.2 13.8 14.4 15.0 
</DataArray>
<DataArray type="Float64" Name="Array Y-Axis" format="ascii" RangeMin="15.0" RangeMax="30.0">
15.0 15.6 16.2 16.8 17.4 18.0 18.6 19.2 19.8 20.4 21.0 21.6 22.2 22.8 23.4 24.0 24.6 25.2 25.8 26.4 27.0 27.6 28.2 28.8 29.4 30.0 
</DataArray>
<DataArray type="Float64" Name="Array Z-Axis" format="ascii" RangeMin="0.0" RangeMax="9.0">
0.0 0.6 1.2 1.8 2.4 3.0 3.6 4.2 4.8 5.4 6.0 6.6 7.2 7.8 8.4 9.0 
</DataArray>
</Coordinates>
<PointData>
<DataArray Name="TEMPERATURE" NumberOfComponents="1" type="Float64" format="ascii">
20.0 20.0 20.1 20.1 20.2 20.2 20.3 20.3 20.4 20.5 20.5 20.6 20.7 20.8 20.8 20.9 21.1 21.2 21.3 21.5 21.7 22.0 22.2 22.5 22.9 22.4 20.0 20.0 20.1 20.1 20.2 20.2 20.3 20.3 20.4 20.4 20.5 20.5 20.6 20.7 20.7 20.8 20.9 21.0 21.2 21.4 21.6 21.8 22.0 22.3 22.6 23.0 20.0 20.0 20.1 20.1 20.1 20.2 20.2 20.3 20.3 20.4 20.4 20.5 20.5 20.6 20.7 20.8 20.9 21.0 21.1 21.3 21.5 21.7 21.9 22.1 22.3 22.6 20.0 20.0 20.1 20.1 20.1 20.2 20.2 20.3 20.3 20.3 20.4 20.4 20.5 20.6 20.6 20.7 20.8 21.0 21.1 21.2 21.4 21.5 21.7 21.9 22.1 22.4 20.0 20.0 20.0 20.1 20.1 20.2 20.2 20.2 20.3 20.3 20.4 20.4 20.5 20.6 20.6 20.7 20.8 20.9 21.0 21.1 21.3 21.4 21.6 21.7 21.9 22.1 20.0 20.0 20.0 20.1 20.1 20.2 20.2 20.2 20.3 20.3 20.4 20.4 20.5 20.5 20.6 20.7 20.8 20.9 21.0 21.1 21.2 21.3 21.4 21.5 21.7 21.8 20.0 20.0 20.0 20.1 20.1 20.2 20.2 20.2 20.3 20.3 20.4 20.4 20.5 20.5 20.6 20.6 20.7 20.8 20.9 21.0 21.1 21.2 21.3 21.4 21.5 21.6 20.0 20.0 20.0 20.1 20.1 20.2 20.2 20.2 20.3 20.3 20.3 20.4 20.4 20.5 20.5 20.6 20.7 20.7 20.8 20.9 21.0 21.1 21.2 21.2 21.3 21.4 20.0 20.0 20.1 20.1 20.1 20.2 20.2 20.2 20.3 20.3 20.3 20.4 20.4 20.5 20.5 20.6 20.6 20.7 20.7 20.8 20.9 21.0 21.0 21.1 21.2 21.3 20.0 20.0 20.1 20.1 20.1 20.2 20.2 20.2 20.2 20.3 20.3 20.3 20.4 20.4 20.5 20.5 20.6 20.6 20.7 20.7 20.8 20.9 20.9 21.0 21.1 21.1 20.0 20.0 20.1 20.1 20.1 20.2 20.2 20.2 20.2 20.3 20.3 20.3 20.3 20.4 20.4 20.5 20.5 20.6 20.6 20.7 20.7 20.8 20.8 20.9 20.9 21.0 20.0 20.0 20.1 20.1 20.1 20.1 20.2 20.2 20.2 20.2 20.3 20.3 20.3 20.4 20.4 20.4 20.5 20.5 20.6 20.6 20.7 20.7 20.8 20.8 20.8 20.9 20.0 20.0 20.1 20.1 20.1 20.1 20.2 20.2 20.2 20.2 20.2 20.3 20.3 20.3 20.4 20.4 20.4 20.5 20.5 20.6 20.6 20.6 20.7 20.7 20.7 20.8 20.0 20.0 20.1 20.1 20.1 20.1 20.1 20.2 20.2 20.2 20.2 20.2 20.3 20.3 20.3 20.4 20.4 20.4 20.5 20.5 20.5 20.6 20.6 20.6 20.7 20.7 20.0 20.0 20.1 20.1 20.1 20.1 20.1 20.1 20.2 20.2 20.2 20.2 20.3 20.3 20.3 20.3 20.4 20.4 20.4 20.5 20.5 20.5 20.5 20.6 20.6 20.6 20.0 20.0 20.1 20.1 20.1 20.1 20.1 20.1 20.2 20.2 20.2 20.2 20.2 20.3 20.3 20.3 20.3 20.4 20.4 20.4 20.4 20.5 20.5 20.5 20.5 20.5 20.0 20.0 20.0 20.1 20.1 20.1 20.1 20.1 20.1 20.2 20.2 20.2 20.2 20.2 20.2 20.3 20.3 20.3 20.3 20.4 20.4 20.4 20.4 20.4 20.5 20.5 20.0 20.0 20.0 20.1 20.1 20.1 20.1 20.1 20.1 20.1 20.2 20.2 20.2 20.2 20.2 20.2 20.3 20.3 20.3 20.3 20.3 20.4 20.4 20.4 20.4 20.4 20.0 20.0 20.0 20.1 20.1 20.1 20.1 20.1 20.1 20.1 20.1 20.2 20.2 20.2 20.2 20.2 20.2 20.3 20.3 20.3 20.3 20.3 20.3 20.3 20.3 20.4 20.0 20.0 20.0 20.1 20.1 20.1 20.1 20.1 20.1 20.1 20.1 20.1 20.2 20.2 20.2 20.2 20.2 20.2 20.2 20.2 20.3 20.3 20.3 20.3 20.3 20.3 20.0 20.0 20.0 20.1 20.1 20.1 20.1 20.1 20.1 20.1 20.1 20.1 20.1 20.1 20.2 20.2 20.2 20.2 20.2 20.2 20.2 20.2 20.2 20.2 20.2 20.2 20.0 20.0 20.0 20.1 20.1 20.1 20.1 20.1 20.1 20.1 20.1 20.1 20.1 20.1 20.1 20.1 20.1 20.1 20.1 20.1 20.1 20.1 20.2 20.2 20.2 20.2 20.0 20.0 20.0 20.1 20.1 20.1 20.1 20.1 20.1 20.1 20.1 20.1 20.1 20.1 20.1 20.1 20.1 20.1 20.1 20.1 20.1 20.1 20.1 20.1 20.1 20.1 20.0 20.0 20.0 20.0 20.0 20.0 20.1 20.1 20.1 20.1 20.1 20.1 20.1 20.1 20.1 20.1 20.1 20.1 20.1 20.1 20.1 20.1 20.1 20.1 20.1 20.1 20.0 20.0 20.0 20.0 20.0 20.0 20.0 20.0 20.0 20.0 20.0 20.0 20.0 20.0 20.0 20.0 20.0 20.0 20.0 20.0 20.0 20.0 20.0 20.0 20.0 20.0 20.0 20.0 20.0 20.0 20.0 20.0 20.0 20.0 20.0 20.0 20.0 20.0 20.0 20.0 20.0 20.0 20.0 20.0 20.0 20.0 20.0 20.0 20.0 20.0 20.0 20.0 20.0 20.0 20.1 20.1 20.1 20.2 20.3 20.3 20.4 20.4 20.5 20.5 20.6 20.7 20.8 20.9 21.0 21.1 21.3 21.5 21.7 22.0 22.3 22.6 23.0 22.5 20.0 20.0 20.1 20.1 20.1 20.2 20.2 20.3 20.3 20.4 20.4 20.5 20.5 20.6 20.7 20.8 20.9 21.0 21.2 21.3 21.6 21.8 22.0 22.3 22.7 23.1 20.0 20.0 20.1 20.1 20.1 20.2 20.2 20.3 20.3 20.3 20.4 20.4 20.5 20.6 20.6 20.7 20.8 21.0 21.1 21.3 21.5 21.7 21.9 22.1 22.4 22.7 20.0 20.0 20.0 20.1 20.1 20.2 20.2 20.2 20.3 20.3 20.3 20.4 20.5 20.5 20.6 20.7 20.8 20.9 21.0 21.2 21.4 21.5 21.7 21.9 22.1 22.4 20.0 20.0 20.0 20.1 20.1 20.1 20.2 20.2 20.2 20.3 20.3 20.4 20.4 20.5 20.6 20.7 20.8 20.9 21.0 21.1 21.2 21.4 21.5 21.7 21.9 22.1 20.0 20.0 20.0 20.1 20.1 20.1 20.2 20.2 20.2 20.3 20.3 20.4 20.4 20.5 20.6 20.6 20.7 20.8 20.9 21.0 21.1 21.3 21.4 21.5 21.7 21.9 20.0 20.0 20.0 20.1 20.1 20.1 20.2 20.2 20.2 20.3 20.3 20.4 20.4 20.5 20.5 20.6 20.7 20.8 20.8 20.9 21.0 21.1 21.2 21.4 21.5 21.6 20.0 20.0 20.0 20.1 20.1 20.1 20.2 20.2 20.2 20.3 20.3 20.4 20.4 20.4 20.5 20.6 20.6 20.7 20.8 20.8 20.9 21.0 21.1 21.2 21.3 21.4 20.0 20.0 20.0 20.1 20.1 20.1 20.2 20.2 20.2 20.3 20.3 20.3 20.4 20.4 20.5 20.5 20.6 20.6 20.7 20.8 20.8 20.9 21.0 21.1 21.1 21.2 20.0 20.0 20.0 20.1 20.1 20.1 20.2 20.2 20.2 20.2 20.3 20.3 20.3 20.4 20.4 20.5 20.5 20.6 20.6 20.7 20.8 20.8 20.9 20.9 21.0 21.1 20.0 20.0 20.0 20.1 20.1 20.1 20.2 20.2 20.2 20.2 20.3 20.3 20.3 20.4 20.4 20.4 20.5 20.5 20.6 20.6 20.7 20.7 20.8 20.8 20.9 20.9 20.0 20.0 20.0 20.1 20.1 20.1 20.2 20.2 20.2 20.2 20.2 20.3 20.3 20.3 20.4 20.4 20.4 20.5 20.5 20.6 20.6 20.7 20.7 20.7 20.8 20.8 20.0 20.0 20.0 20.1 20.1 20.1 20.1 20.2 20.2 20.2 20.2 20.2 20.3 20.3 20.3 20.4 20.4 20.4 20.5 20.5 20.5 20.6 20.6 20.7 20.7 20.7 20.0 20.0 20.0 20.1 20.1 20.1 20.1 20.1 20.2 20.2 20.2 20.2 20.2 20.3 20.3 20.3 20.4 20.4 20.4 20.5 20.5 20.5 20.6 20.6 20.6 20.6 20.0 20.0 20.0 20.1 20.1 20.1 20.1 20.1 20.1 20.2 20.2 20.2 20.2 20.2 20.3 20.3 20.3 20.4 20.4 20.4 20.4 20.5 20.5 20.5 20.5 20.6 20.0 20.0 20.0 20.1 20.1 20.1 20.1 20.1 20.1 20.2 20.2 20.2 20.2 20.2 20.2 20.3 20.3 20.3 20.3 20.4 20.4 20.4 20.4 20.5 20.5 20.5 20.0 20.0 20.0 20.1 20.1 20.1 20.1 20.1 20.1 20.1 20.2 20.2 20.2 20.2 20.2 20.2 20.3 20.3 20.3 20.3 20.3 20.4 20.4 20.4 20.4 20.4 20.0 20.0 20.0 20.1 20.1 20.1 20.1 20.1 20.1 20.1 20.1 20.2 20.2 20.2 20.2 20.2 20.2 20.3 20.3 20.3 20.3 20.3 20.3 20.3 20.4 20.4 20.0 20.0 20.0 20.1 20.1 20.1 20.1 20.1 20.1 20.1 20.1 20.1 20.2 20.2 20.2 20.2 20.2 20.2 20.2 20.3 20.3 20.3 20.3 20.3 20.3 20.3 20.0 20.0 20.0 20.1 20.1 20.1 20.1 20.1 20.1 20.1 20.1 20.1 20.1 20.1 20.2 20.2 20.2 20.2 20.2 20.2 20.2 20.2 20.2 20.2 20.3 20.3 20.0 20.0 20.0 20.1 20.1 20.1 20.1 20.1 20.1 20.1 20.1 20.1 20.1 20.1 20.1 20.1 20.2 20.2 20.2 20.2 20.2 20.2 20.2 20.2 20.2 20.2 20.0 20.0 20.0 20.1 20.1 20.1 20.1 20.1 20.1 20.1 20.1 20.1 20.1 20.1 20.1 20.1 20.1 20.1 20.1 20.1 20.1 20.1 20.1 20.1 20.1 20.2 20.0 20.0 20.0 20.0 20.1 20.1 20.1 20.1 20.1 20.1 20.1 20.1 20.1 20.1 20.1 20.1 20.1 20.1 20.1 20.1 20.1 20.1 20.1 20.1 20.1 20.1 20.0 20.0 20.0 20.0 20.0 20.0 20.0 20.0 20.0 20.0 20.0 20.0 20.0 20.0 20.0 20.0 20.1 20.1 20.1 20.1 20.1 20.1 20.1 20.1 20.1 20.1 20.0 20.0 20.0 20.0 20.0 20.0 20.0 20.0 20.0 20.0 20.0 20.0 20.0 20.0 20.0 20.0 20.0 20.0 20.0 20.0 20.0 20.0 20.0 20.0 20.0 20.0 20.0 20.0 20.0 20.0 20.0 20.0 20.0 20.0 20.0 20.0 20.0 20.0 20.0 20.0 20.0 20.0 20.0 20.0 20.0 20.0 20.0 20.0 20.0 20.0 20.0 20.0 20.0 20.0 20.0 20.1 20.1 20.2 20.2 20.2 20.3 20.3 20.4 20.4 20.5 20.6 20.7 20.8 20.9 21.1 21.3 21.5 21.7 22.0 22.4 22.8 23.2 22.7 20.0 20.0 20.0 20.1 20.1 20.2 20.2 20.2 20.3 20.3 20.4 20.4 20.5 20.5 20.6 20.7 20.8 21.0 21.1 21.3 21.6 21.8 22.1 22.5 22.9 23.3 20.0 20.0 20.0 20.1 20.1 20.1 20.2 20.2 20.2 20.3 20.3 20.4 20.4 20.5 20.6 20.7 20.8 20.9 21.1 21.2 21.4 21.7 21.9 22.2 22.5 22.9 20.0 20.0 20.0 20.1 20.1 20.1 20.2 20.2 20.2 20.3 20.3 20.3 20.4 20.5 20.5 20.6 20.7 20.9 21.0 21.2 21.3 21.5 21.7 22.0 22.2 22.6 20.0 20.0 20.0 20.1 20.1 20.1 20.1 20.2 20.2 20.2 20.3 20.3 20.4 20.5 20.5 20.6 20.7 20.8 20.9 21.1 21.2 21.4 21.5 21.7 22.0 22.2 20.0 20.0 20.0 20.1 20.1 20.1 20.1 20.2 20.2 20.2 20.3 20.3 20.4 20.4 20.5 20.6 20.7 20.7 20.8 21.0 21.1 21.2 21.4 21.5 21.7 21.9 20.0 20.0 20.0 20.1 20.1 20.1 20.1 20.2 20.2 20.2 20.3 20.3 20.4 20.4 20.5 20.5 20.6 20.7 20.8 20.9 21.0 21.1 21.2 21.3 21.5 21.7 20.0 20.0 20.0 20.1 20.1 20.1 20.1 20.2 20.2 20.2 20.3 20.3 20.3 20.4 20.4 20.5 20.6 20.6 20.7 20.8 20.9 21.0 21.0 21.2 21.3 21.5 20.0 20.0 20.0 20.1 20.1 20.1 20.1 20.2 20.2 20.2 20.2 20.3 20.3 20.4 20.4 20.4 20.5 20.6 20.6 20.7 20.8 20.8 20.9 21.0 21.1 21.3 20.0 20.0 20.0 20.1 20.1 20.1 20.1 20.2 20.2 20.2 20.2 20.3 20.3 20.3 20.4 20.4 20.5 20.5 20.6 20.6 20.7 20.7 20.8 20.9 21.0 21.2 20.0 20.0 20.0 20.1 20.1 20.1 20.1 20.1 20.2 20.2 20.2 20.2 20.3 20.3 20.3 20.4 20.4 20.5 20.5 20.5 20.6 20.6 20.7 20.8 20.9 21.0 20.0 20.0 20.0 20.1 20.1 20.1 20.1 20.1 20.2 20.2 20.2 20.2 20.2 20.3 20.3 20.3 20.4 20.4 20.4 20.5 20.5 20.6 20.6 20.7 20.7 20.9 20.0 20.0 20.0 20.1 20.1 20.1 20.1 20.1 20.1 20.2 20.2 20.2 20.2 20.2 20.3 20.3 20.3 20.4 20.4 20.4 20.5 20.5 20.5 20.6 20.6 20.8 20.0 20.0 20.0 20.1 20.1 20.1 20.1 20.1 20.1 20.1 20.2 20.2 20.2 20.2 20.2 20.3 20.3 20.3 20.3 20.4 20.4 20.4 20.5 20.5 20.5 20.7 20.0 20.0 20.0 20.1 20.1 20.1 20.1 20.1 20.1 20.1 20.1 20.2 20.2 20.2 20.2 20.2 20.3 20.3 20.3 20.3 20.4 20.4 20.4 20.4 20.5 20.6 20.0 20.0 20.0 20.1 20.1 20.1 20.1 20.1 20.1 20.1 20.1 20.2 20.2 20.2 20.2 20.2 20.2 20.3 20.3 20.3 20.3 20.3 20.3 20.4 20.4 20.4 20.0 20.0 20.0 20.1 20.1 20.1 20.1 20.1 20.1 20.1 20.1 20.1 20.1 20.2 20.2 20.2 20.2 20.2 20.2 20.3 20.3 20.3 20.3 20.3 20.3 20.3 20.0 20.0 20.0 20.1 20.1 20.1 20.1 20.1 20.1 20.1 20.1 20.1 20.1 20.1 20.2 20.2 20.2 20.2 20.2 20.2 20.2 20.2 20.3 20.3 20.3 20.3 20.0 20.0 20.0 20.0 20.1 20.1 20.1 20.1 20.1 20.1 20.1 20.1 20.1 20.1 20.1 20.1 20.2 20.2 20.2 20.2 20.2 20.2 20.2 20.2 20.2 20.2 20.0 20.0 20.0 20.0 20.1 20.1 20.1 20.1 20.1 20.1 20.1 20.1 20.1 20.1 20.1 20.1 20.1 20.1 20.2 20.2 20.2 20.2 20.2 20.2 20.2 20.2 20.0 20.0 20.0 20.0 20.0 20.1 20.1 20.1 20.1 20.1 20.1 20.1 20.1 20.1 20.1 20.1 20.1 20.1 20.1 20.1 20.1 20.1 20.1 20.1 20.2 20.2 20.0 20.0 20.0 20.0 20.0 20.0 20.1 20.1 20.1 20.1 20.1 20.1 20.1 20.1 20.1 20.1 20.1 20.1 20.1 20.1 20.1 20.1 20.1 20.1 20.1 20.1 20.0 20.0 20.0 20.0 20.0 20.0 20.0 20.0 20.1 20.1 20.1 20.1 20.1 20.1 20.1 20.1 20.1 20.1 20.1 20.1 20.1 20.1 20.1 20.1 20.1 20.1 20.0 20.0 20.0 20.0 20.0 20.0 20.0 20.0 20.0 20.0 20.0 20.0 20.0 20.0 20.0 20.0 20.0 20.0 20.0 20.0 20.0 20.0 20.0 20.0 20.0 20.0 20.0 20.0 20.0 20.0 20.0 20.0 20.0 20.0 20.0 20.0 20.0 20.0 20.0 20.0 20.0 20.0 20.0 20.0 20.0 20.0 20.0 20.0 20.0 20.0 20.0 20.0 20.0 20.0 20.0 20.0 20.0 20.0 20.0 20.0 20.0 20.0 20.0 20.0 20.0 20.0 20.0 20.0 20.0 20.0 20.0 20.0 20.0 20.0 20.0 20.0 20.0 20.0 20.0 20.0 20.0 20.1 20.1 20.1 20.2 20.2 20.3 20.3 20.3 20.4 20.5 20.6 20.7 20.8 21.0 21.1 21.3 21.6 21.8 22.2 22.5 23.0 23.5 22.9 20.0 20.0 20.0 20.1 20.1 20.1 20.2 20.2 20.3 20.3 20.3 20.4 20.5 20.5 20.6 20.7 20.9 21.0 21.2 21.4 21.7 21.9 22.2 22.6 23.0 23.6 20.0 20.0 20.0 20.1 20.1 20.1 20.2 20.2 20.2 20.3 20.3 20.4 20.4 20.5 20.6 20.7 20.8 21.0 21.1 21.3 21.5 21.8 22.0 22.3 22.7 23.1 20.0 20.0 20.0 20.1 20.1 20.1 20.2 20.2 20.2 20.3 20.3 20.3 20.4 20.5 20.6 20.7 20.8 20.9 21.0 21.2 21.4 21.6 21.8 22.1 22.4 22.7 20.0 20.0 20.0 20.1 20.1 20.1 20.1 20.2 20.2 20.2 20.3 20.3 20.4 20.5 20.5 20.6 20.7 20.8 21.0 21.1 21.2 21.4 21.6 21.8 22.1 22.4 20.0 20.0 20.0 20.1 20.1 20.1 20.1 20.2 20.2 20.2 20.3 20.3 20.4 20.4 20.5 20.6 20.7 20.8 20.9 21.0 21.1 21.3 21.5 21.6 21.8 22.0 20.0 20.0 20.0 20.1 20.1 20.1 20.1 20.2 20.2 20.2 20.3 20.3 20.4 20.4 20.5 20.5 20.6 20.7 20.8 20.9 21.0 21.1 21.3 21.4 21.6 21.8 20.0 20.0 20.0 20.1 20.1 20.1 20.1 20.2 20.2 20.2 20.3 20.3 20.3 20.4 20.4 20.5 20.6 20.6 20.7 20.8 20.9 21.0 21.1 21.3 21.5 21.7 20.0 20.0 20.0 20.1 20.1 20.1 20.1 20.2 20.2 20.2 20.2 20.3 20.3 20.3 20.4 20.4 20.5 20.6 20.6 20.7 20.8 20.8 20.9 21.2 21.4 21.8 20.0 20.0 20.0 20.1 20.1 20.1 20.1 20.1 20.2 20.2 20.2 20.2 20.3 20.3 20.4 20.4 20.4 20.5 20.6 20.6 20.7 20.7 20.8 21.0 21.2 21.5 20.0 20.0 20.0 20.1 20.1 20.1 20.1 20.1 20.2 20.2 20.2 20.2 20.3 20.3 20.3 20.4 20.4 20.4 20.5 20.5 20.6 20.6 20.7 20.8 21.0 21.2 20.0 20.0 20.0 20.1 20.1 20.1 20.1 20.1 20.1 20.2 20.2 20.2 20.2 20.3 20.3 20.3 20.4 20.4 20.4 20.5 20.5 20.5 20.6 20.7 20.8 21.0 20.0 20.0 20.0 20.1 20.1 20.1 20.1 20.1 20.1 20.1 20.2 20.2 20.2 20.2 20.3 20.3 20.3 20.3 20.4 20.4 20.4 20.4 20.5 20.6 20.7 20.9 20.0 20.0 20.0 20.1 20.1 20.1 20.1 20.1 20.1 20.1 20.2 20.2 20.2 20.2 20.2 20.3 20.3 20.3 20.3 20.3 20.4 20.4 20.4 20.5 20.5 20.8 20.0 20.0 20.0 20.1 20.1 20.1 20.1 20.1 20.1 20.1 20.1 20.2 20.2 20.2 20.2 20.2 20.2 20.3 20.3 20.3 20.3 20.3 20.3 20.4 20.4 20.6 20.0 20.0 20.0 20.1 20.1 20.1 20.1 20.1 20.1 20.1 20.1 20.1 20.2 20.2 20.2 20.2 20.2 20.2 20.2 20.3 20.3 20.3 20.3 20.3 20.4 20.5 20.0 20.0 20.0 20.0 20.1 20.1 20.1 20.1 20.1 20.1 20.1 20.1 20.1 20.1 20.2 20.2 20.2 20.2 20.2 20.2 20.2 20.2 20.2 20.3 20.3 20.3 20.0 20.0 20.0 20.0 20.1 20.1 20.1 20.1 20.1 20.1 20.1 20.1 20.1 20.1 20.1 20.2 20.2 20.2 20.2 20.2 20.2 20.2 20.2 20.2 20.2 20.2 20.0 20.0 20.0 20.0 20.1 20.1 20.1 20.1 20.1 20.1 20.1 20.1 20.1 20.1 20.1 20.1 20.1 20.1 20.2 20.2 20.2 20.2 20.2 20.2 20.2 20.2 20.0 20.0 20.0 20.0 20.0 20.1 20.1 20.1 20.1 20.1 20.1 20.1 20.1 20.1 20.1 20.1 20.1 20.1 20.1 20.1 20.1 20.1 20.1 20.1 20.2 20.2 20.0 20.0 20.0 20.0 20.0 20.0 20.1 20.1 20.1 20.1 20.1 20.1 20.1 20.1 20.1 20.1 20.1 20.1 20.1 20.1 20.1 20.1 20.1 20.1 20.1 20.1 20.0 20.0 20.0 20.0 20.0 20.0 20.0 20.1 20.1 20.1 20.1 20.1 20.1 20.1 20.1 20.1 20.1 20.1 20.1 20.1 20.1 20.1 20.1 20.1 20.1 20.1 20.0 20.0 20.0 20.0 20.0 20.0 20.0 20.0 20.0 20.0 20.1 20.1 20.1 20.1 20.1 20.1 20.1 20.1 20.1 20.1 20.1 20.1 20.1 20.1 20.1 20.1 20.0 20.0 20.0 20.0 20.0 20.0 20.0 20.0 20.0 20.0 20.0 20.0 20.0 20.0 20.0 20.0 20.0 20.0 20.0 20.0 20.0 20.0 20.0 20.0 20.0 20.0 20.0 20.0 20.0 20.0 20.0 20.0 20.0 20.0 20.0 20.0 20.0 20.0 20.0 20.0 20.0 20.0 20.0 20.0 20.0 20.0 20.0 20.0 20.0 20.0 20.0 20.0 20.0 20.0 20.0 20.0 20.0 20.0 20.0 20.0 20.0 20.0 20.0 20.0 20.0 20.0 20.0 20.0 20.0 20.0 20.0 20.0 20.0 20.0 20.0 20.0 20.0 20.0 20.0 20.0 20.1 20.1 20.1 20.2 20.2 20.2 20.3 20.3 20.4 20.5 20.6 20.7 20.8 20.9 21.1 21.3 21.5 21.7 22.0 22.3 22.7 23.3 24.1 23.8 20.0 20.0 20.1 20.1 20.1 20.2 20.2 20.3 20.3 20.3 20.4 20.5 20.5 20.6 20.7 20.8 21.0 21.2 21.3 21.6 21.8 22.1 22.4 22.8 23.3 24.2 20.0 20.0 20.1 20.1 20.1 20.2 20.2 20.2 20.3 20.3 20.4 20.4 20.5 20.6 20.7 20.8 20.9 21.1 21.3 21.5 21.7 21.9 22.2 22.5 22.9 23.3 20.0 20.0 20.0 20.1 20.1 20.1 20.2 20.2 20.2 20.3 20.3 20.4 20.5 20.5 20.6 20.7 20.9 21.0 21.2 21.3 21.5 21.7 22.0 22.2 22.6 22.9 20.0 20.0 20.0 20.1 20.1 20.1 20.2 20.2 20.2 20.3 20.3 20.4 20.4 20.5 20.6 20.7 20.8 20.9 21.1 21.2 21.4 21.6 21.8 22.0 22.3 22.5 20.0 20.0 20.0 20.1 20.1 20.1 20.2 20.2 20.2 20.3 20.3 20.4 20.4 20.5 20.6 20.7 20.8 20.9 21.0 21.1 21.2 21.4 21.6 21.8 22.1 22.3 20.0 20.0 20.0 20.1 20.1 20.1 20.2 20.2 20.2 20.3 20.3 20.4 20.4 20.5 20.5 20.6 20.7 20.8 20.9 21.0 21.1 21.2 21.4 21.7 21.9 22.2 20.0 20.0 20.0 20.1 20.1 20.1 20.2 20.2 20.2 20.3 20.3 20.3 20.4 20.4 20.5 20.6 20.6 20.7 20.8 20.9 21.0 21.1 21.3 21.6 21.9 22.3 20.0 20.0 20.0 20.1 20.1 20.1 20.2 20.2 20.2 20.2 20.3 20.3 20.3 20.4 20.4 20.5 20.6 20.6 20.7 20.8 20.8 21.0 21.2 21.6 22.0 22.5 20.0 20.0 20.0 20.1 20.1 20.1 20.1 20.2 20.2 20.2 20.2 20.3 20.3 20.4 20.4 20.5 20.5 20.6 20.6 20.7 20.7 20.8 20.8 21.0 21.5 22.0 20.0 20.0 20.0 20.1 20.1 20.1 20.1 20.2 20.2 20.2 20.2 20.3 20.3 20.3 20.4 20.4 20.5 20.5 20.5 20.5 20.6 20.6 20.5 20.5 20.9 21.4 20.0 20.0 20.0 20.1 20.1 20.1 20.1 20.1 20.2 20.2 20.2 20.2 20.3 20.3 20.3 20.4 20.4 20.4 20.5 20.5 20.5 20.5 20.4 20.4 20.8 21.2 20.0 20.0 20.0 20.1 20.1 20.1 20.1 20.1 20.1 20.2 20.2 20.2 20.2 20.3 20.3 20.3 20.3 20.4 20.4 20.4 20.4 20.4 20.3 20.3 20.7 21.0 20.0 20.0 20.0 20.1 20.1 20.1 20.1 20.1 20.1 20.1 20.2 20.2 20.2 20.2 20.3 20.3 20.3 20.3 20.3 20.3 20.3 20.4 20.3 20.3 20.5 20.9 20.0 20.0 20.0 20.1 20.1 20.1 20.1 20.1 20.1 20.1 20.2 20.2 20.2 20.2 20.2 20.2 20.3 20.3 20.3 20.3 20.3 20.3 20.2 20.2 20.4 20.7 20.0 20.0 20.0 20.1 20.1 20.1 20.1 20.1 20.1 20.1 20.1 20.2 20.2 20.2 20.2 20.2 20.2 20.2 20.3 20.3 20.2 20.3 20.2 20.2 20.3 20.5 20.0 20.0 20.0 20.1 20.1 20.1 20.1 20.1 20.1 20.1 20.1 20.1 20.2 20.2 20.2 20.2 20.2 20.2 20.2 20.2 20.2 20.2 20.2 20.2 20.3 20.3 20.0 20.0 20.0 20.0 20.1 20.1 20.1 20.1 20.1 20.1 20.1 20.1 20.1 20.1 20.2 20.2 20.2 20.2 20.2 20.2 20.2 20.2 20.2 20.2 20.2 20.2 20.0 20.0 20.0 20.0 20.1 20.1 20.1 20.1 20.1 20.1 20.1 20.1 20.1 20.1 20.1 20.1 20.2 20.2 20.2 20.2 20.2 20.2 20.2 20.2 20.2 20.2 20.0 20.0 20.0 20.0 20.1 20.1 20.1 20.1 20.1 20.1 20.1 20.1 20.1 20.1 20.1 20.1 20.1 20.1 20.1 20.1 20.1 20.1 20.1 20.1 20.1 20.2 20.0 20.0 20.0 20.0 20.0 20.1 20.1 20.1 20.1 20.1 20.1 20.1 20.1 20.1 20.1 20.1 20.1 20.1 20.1 20.1 20.1 20.1 20.1 20.1 20.1 20.1 20.0 20.0 20.0 20.0 20.0 20.0 20.1 20.1 20.1 20.1 20.1 20.1 20.1 20.1 20.1 20.1 20.1 20.1 20.1 20.1 20.1 20.1 20.1 20.1 20.1 20.1 20.0 20.0 20.0 20.0 20.0 20.0 20.0 20.0 20.1 20.1 20.1 20.1 20.1 20.1 20.1 20.1 20.1 20.1 20.1 20.1 20.1 20.1 20.1 20.1 20.1 20.1 20.0 20.0 20.0 20.0 20.0 20.0 20.0 20.0 20.0 20.0 20.0 20.0 20.0 20.0 20.0 20.0 20.0 20.0 20.0 20.0 20.0 20.0 20.0 20.0 20.0 20.0 20.0 20.0 20.0 20.0 20.0 20.0 20.0 20.0 20.0 20.0 20.0 20.0 20.0 20.0 20.0 20.0 20.0 20.0 20.0 20.0 20.0 20.0 20.0 20.0 20.0 20.0 20.0 20.0 20.0 20.0 20.0 20.0 20.0 20.0 20.0 20.0 20.0 20.0 20.0 20.0 20.0 20.0 20.0 20.0 20.0 20.0 20.0 20.0 20.0 20.0 20.0 20.0 20.0 20.0 20.1 20.1 20.2 20.2 20.3 20.3 20.4 20.4 20.5 20.6 20.7 20.8 20.9 21.1 21.2 21.4 21.6 21.8 22.1 22.4 23.1 26.0 30.2 29.8 20.0 20.0 20.1 20.1 20.2 20.2 20.3 20.3 20.4 20.4 20.5 20.6 20.6 20.7 20.8 21.0 21.1 21.2 21.4 21.7 21.9 22.2 22.5 23.4 25.5 28.6 20.0 20.0 20.1 20.1 20.1 20.2 20.2 20.3 20.3 20.4 20.4 20.5 20.6 20.7 20.8 20.9 21.0 21.2 21.4 21.6 21.8 22.0 22.3 22.6 23.1 24.0 20.0 20.0 20.1 20.1 20.1 20.2 20.2 20.3 20.3 20.3 20.4 20.5 20.5 20.6 20.7 20.8 21.0 21.1 21.3 21.4 21.6 21.9 22.1 22.4 22.7 23.1 20.0 20.0 20.1 20.1 20.1 20.2 20.2 20.2 20.3 20.3 20.4 20.4 20.5 20.6 20.7 20.8 20.9 21.0 21.2 21.3 21.5 21.7 21.9 22.1 22.4 22.8 20.0 20.0 20.0 20.1 20.1 20.2 20.2 20.2 20.3 20.3 20.4 20.4 20.5 20.6 20.7 20.8 20.9 21.0 21.1 21.2 21.4 21.5 21.7 21.9 22.2 22.6 20.0 20.0 20.0 20.1 20.1 20.2 20.2 20.2 20.3 20.3 20.4 20.4 20.5 20.5 20.6 20.7 20.8 20.9 21.0 21.1 21.2 21.3 21.5 21.8 22.1 22.6 20.0 20.0 20.0 20.1 20.1 20.2 20.2 20.2 20.3 20.3 20.3 20.4 20.4 20.5 20.6 20.6 20.7 20.8 20.9 21.0 21.0 21.1 21.4 21.7 22.1 22.7 20.0 20.0 20.0 20.1 20.1 20.2 20.2 20.2 20.2 20.3 20.3 20.4 20.4 20.5 20.5 20.6 20.7 20.7 20.8 20.8 20.9 21.0 21.3 21.7 22.0 22.8 20.0 20.0 20.1 20.1 20.1 20.1 20.2 20.2 20.2 20.3 20.3 20.3 20.4 20.4 20.5 20.5 20.6 20.6 20.7 20.7 20.7 20.8 20.9 21.0 21.6 22.3 20.0 20.0 20.1 20.1 20.1 20.1 20.2 20.2 20.2 20.2 20.3 20.3 20.3 20.4 20.4 20.5 20.5 20.6 20.6 20.6 20.5 20.6 20.5 20.4 21.0 21.6 20.0 20.0 20.1 20.1 20.1 20.1 20.2 20.2 20.2 20.2 20.2 20.3 20.3 20.3 20.4 20.4 20.5 20.5 20.5 20.5 20.4 20.5 20.4 20.4 20.9 21.4 20.0 20.0 20.1 20.1 20.1 20.1 20.1 20.2 20.2 20.2 20.2 20.3 20.3 20.3 20.3 20.4 20.4 20.4 20.4 20.4 20.4 20.4 20.4 20.3 20.8 21.2 20.0 20.0 20.0 20.1 20.1 20.1 20.1 20.1 20.2 20.2 20.2 20.2 20.3 20.3 20.3 20.3 20.3 20.4 20.3 20.3 20.3 20.3 20.3 20.3 20.7 21.0 20.0 20.0 20.0 20.1 20.1 20.1 20.1 20.1 20.2 20.2 20.2 20.2 20.2 20.3 20.3 20.3 20.3 20.3 20.3 20.3 20.3 20.3 20.3 20.2 20.5 20.7 20.0 20.0 20.0 20.1 20.1 20.1 20.1 20.1 20.1 20.2 20.2 20.2 20.2 20.2 20.2 20.2 20.3 20.3 20.3 20.2 20.2 20.2 20.2 20.2 20.4 20.5 20.0 20.0 20.0 20.1 20.1 20.1 20.1 20.1 20.1 20.1 20.2 20.2 20.2 20.2 20.2 20.2 20.2 20.2 20.2 20.2 20.2 20.2 20.2 20.2 20.3 20.3 20.0 20.0 20.0 20.1 20.1 20.1 20.1 20.1 20.1 20.1 20.1 20.2 20.2 20.2 20.2 20.2 20.2 20.2 20.2 20.2 20.2 20.2 20.2 20.2 20.2 20.3 20.0 20.0 20.0 20.1 20.1 20.1 20.1 20.1 20.1 20.1 20.1 20.1 20.1 20.2 20.2 20.2 20.2 20.2 20.2 20.2 20.2 20.2 20.2 20.2 20.2 20.2 20.0 20.0 20.0 20.1 20.1 20.1 20.1 20.1 20.1 20.1 20.1 20.1 20.1 20.1 20.1 20.1 20.1 20.1 20.1 20.1 20.1 20.1 20.1 20.2 20.2 20.2 20.0 20.0 20.0 20.1 20.1 20.1 20.1 20.1 20.1 20.1 20.1 20.1 20.1 20.1 20.1 20.1 20.1 20.1 20.1 20.1 20.1 20.1 20.1 20.1 20.1 20.2 20.0 20.0 20.0 20.0 20.1 20.1 20.1 20.1 20.1 20.1 20.1 20.1 20.1 20.1 20.1 20.1 20.1 20.1 20.1 20.1 20.1 20.1 20.1 20.1 20.1 20.1 20.0 20.0 20.0 20.0 20.0 20.1 20.1 20.1 20.1 20.1 20.1 20.1 20.1 20.1 20.1 20.1 20.1 20.1 20.1 20.1 20.1 20.1 20.1 20.1 20.1 20.1 20.0 20.0 20.0 20.0 20.0 20.0 20.0 20.0 20.0 20.0 20.0 20.0 20.0 20.0 20.0 20.0 20.0 20.0 20.0 20.0 20.0 20.0 20.0 20.0 20.0 20.1 20.0 20.0 20.0 20.0 20.0 20.0 20.0 20.0 20.0 20.0 20.0 20.0 20.0 20.0 20.0 20.0 20.0 20.0 20.0 20.0 20.0 20.0 20.0 20.0 20.0 20.0 20.0 20.0 20.0 20.0 20.0 20.0 20.0 20.0 20.0 20.0 20.0 20.0 20.0 20.0 20.0 20.0 20.0 20.0 20.0 20.0 20.0 20.0 20.0 20.0 20.0 20.0 20.0 20.0 20.1 20.1 20.2 20.3 20.3 20.4 20.4 20.5 20.6 20.7 20.8 20.9 21.0 21.1 21.3 21.4 21.6 21.8 22.1 22.4 25.8 40.2 55.5 50.0 20.0 20.0 20.1 20.1 20.2 20.3 20.3 20.4 20.4 20.5 20.6 20.6 20.7 20.8 20.9 21.0 21.1 21.3 21.4 21.7 21.9 22.2 22.6 26.3 37.8 45.8 20.0 20.0 20.1 20.1 20.2 20.2 20.3 20.3 20.4 20.4 20.5 20.6 20.6 20.7 20.8 20.9 21.0 21.2 21.4 21.6 21.8 22.0 22.3 22.7 24.4 26.6 20.0 20.0 20.1 20.1 20.2 20.2 20.3 20.3 20.3 20.4 20.5 20.5 20.6 20.7 20.8 20.9 21.0 21.1 21.3 21.5 21.7 21.9 22.1 22.4 22.8 23.3 20.0 20.0 20.1 20.1 20.1 20.2 20.2 20.3 20.3 20.4 20.4 20.5 20.6 20.6 20.7 20.8 21.0 21.1 21.2 21.4 21.5 21.7 21.9 22.2 22.5 22.9 20.0 20.0 20.1 20.1 20.1 20.2 20.2 20.3 20.3 20.4 20.4 20.5 20.6 20.6 20.7 20.8 20.9 21.0 21.1 21.3 21.4 21.6 21.7 21.9 22.3 22.8 20.0 20.0 20.1 20.1 20.1 20.2 20.2 20.3 20.3 20.4 20.4 20.5 20.5 20.6 20.7 20.8 20.8 20.9 21.0 21.2 21.3 21.4 21.5 21.7 22.0 22.6 20.0 20.0 20.1 20.1 20.1 20.2 20.2 20.3 20.3 20.4 20.4 20.5 20.5 20.6 20.6 20.7 20.8 20.9 20.9 21.0 21.1 21.2 21.3 21.6 21.9 22.5 20.0 20.0 20.1 20.1 20.1 20.2 20.2 20.3 20.3 20.3 20.4 20.4 20.5 20.5 20.6 20.6 20.7 20.8 20.8 20.9 20.9 21.0 21.2 21.4 21.7 22.2 20.0 20.0 20.1 20.1 20.1 20.2 20.2 20.2 20.3 20.3 20.4 20.4 20.4 20.5 20.5 20.6 20.6 20.7 20.7 20.8 20.7 20.8 21.0 21.1 21.4 21.8 20.0 20.0 20.1 20.1 20.1 20.2 20.2 20.2 20.3 20.3 20.3 20.4 20.4 20.4 20.5 20.5 20.6 20.6 20.6 20.6 20.6 20.6 20.7 20.9 21.1 21.4 20.0 20.0 20.1 20.1 20.1 20.2 20.2 20.2 20.2 20.3 20.3 20.3 20.4 20.4 20.4 20.5 20.5 20.5 20.5 20.5 20.5 20.5 20.6 20.7 21.0 21.2 20.0 20.0 20.1 20.1 20.1 20.2 20.2 20.2 20.2 20.2 20.3 20.3 20.3 20.4 20.4 20.4 20.4 20.5 20.4 20.4 20.4 20.4 20.5 20.6 20.8 21.0 20.0 20.0 20.1 20.1 20.1 20.1 20.2 20.2 20.2 20.2 20.2 20.3 20.3 20.3 20.4 20.4 20.4 20.4 20.4 20.4 20.3 20.4 20.4 20.5 20.7 20.8 20.0 20.0 20.1 20.1 20.1 20.1 20.2 20.2 20.2 20.2 20.2 20.3 20.3 20.3 20.3 20.3 20.3 20.3 20.3 20.3 20.3 20.3 20.4 20.4 20.6 20.7 20.0 20.0 20.1 20.1 20.1 20.1 20.1 20.2 20.2 20.2 20.2 20.2 20.2 20.3 20.3 20.3 20.3 20.3 20.3 20.3 20.3 20.3 20.3 20.4 20.4 20.5 20.0 20.0 20.1 20.1 20.1 20.1 20.1 20.1 20.2 20.2 20.2 20.2 20.2 20.2 20.2 20.2 20.2 20.2 20.2 20.2 20.2 20.2 20.3 20.3 20.4 20.4 20.0 20.0 20.1 20.1 20.1 20.1 20.1 20.1 20.1 20.2 20.2 20.2 20.2 20.2 20.2 20.2 20.2 20.2 20.2 20.2 20.2 20.2 20.2 20.3 20.3 20.4 20.0 20.0 20.1 20.1 20.1 20.1 20.1 20.1 20.1 20.1 20.2 20.2 20.2 20.2 20.2 20.2 20.2 20.2 20.2 20.2 20.2 20.2 20.2 20.2 20.3 20.3 20.0 20.0 20.1 20.1 20.1 20.1 20.1 20.1 20.1 20.1 20.1 20.1 20.1 20.2 20.2 20.2 20.2 20.2 20.2 20.2 20.2 20.2 20.2 20.2 20.2 20.3 20.0 20.0 20.1 20.1 20.1 20.1 20.1 20.1 20.1 20.1 20.1 20.1 20.1 20.1 20.1 20.1 20.1 20.1 20.1 20.1 20.1 20.1 20.1 20.2 20.2 20.2 20.0 20.0 20.1 20.1 20.1 20.1 20.1 20.1 20.1 20.1 20.1 20.1 20.1 20.1 20.1 20.1 20.1 20.1 20.1 20.1 20.1 20.1 20.1 20.1 20.1 20.2 20.0 20.0 20.1 20.1 20.1 20.1 20.1 20.1 20.1 20.1 20.1 20.1 20.1 20.1 20.1 20.1 20.1 20.1 20.1 20.1 20.1 20.1 20.1 20.1 20.1 20.1 20.0 20.0 20.0 20.1 20.1 20.1 20.1 20.1 20.1 20.1 20.1 20.1 20.1 20.1 20.1 20.0 20.0 20.0 20.0 20.0 20.0 20.0 20.0 20.1 20.1 20.1 20.0 20.0 20.0 20.0 20.0 20.0 20.0 20.0 20.0 20.0 20.0 20.0 20.0 20.0 20.0 20.0 20.0 20.0 20.0 20.0 20.0 20.0 20.0 20.0 20.0 20.0 20.0 20.0 20.0 20.0 20.0 20.0 20.0 20.0 20.0 20.0 20.0 20.0 20.0 20.0 20.0 20.0 20.0 20.0 20.0 20.0 20.0 20.0 20.0 20.0 20.0 20.0 20.0 20.0 20.1 20.2 20.2 20.3 20.4 20.4 20.5 20.6 20.6 20.7 20.8 20.9 21.0 21.1 21.2 21.4 21.6 21.8 22.0 22.3 26.9 52.6 80.7 70.0 20.0 20.0 20.1 20.2 20.2 20.3 20.4 20.4 20.5 20.5 20.6 20.6 20.7 20.8 20.9 21.0 21.1 21.2 21.4 21.6 21.8 22.1 22.5 29.2 50.4 64.5 20.0 20.0 20.1 20.2 20.2 20.3 20.3 20.4 20.4 20.5 20.5 20.6 20.6 20.7 20.8 20.9 21.0 21.1 21.3 21.5 21.7 21.9 22.2 22.7 26.1 31.1 20.0 20.0 20.1 20.1 20.2 20.2 20.3 20.3 20.4 20.4 20.5 20.5 20.6 20.7 20.7 20.8 21.0 21.1 21.2 21.4 21.6 21.8 22.0 22.3 22.7 23.3 20.0 20.0 20.1 20.1 20.2 20.2 20.3 20.3 20.4 20.4 20.4 20.5 20.6 20.6 20.7 20.8 20.9 21.1 21.2 21.3 21.5 21.7 21.9 22.1 22.4 22.9 20.0 20.0 20.1 20.1 20.2 20.2 20.3 20.3 20.3 20.4 20.4 20.5 20.6 20.6 20.7 20.8 20.9 21.0 21.1 21.2 21.4 21.5 21.7 21.9 22.2 22.7 20.0 20.0 20.1 20.1 20.2 20.2 20.3 20.3 20.3 20.4 20.4 20.5 20.6 20.6 20.7 20.8 20.8 20.9 21.0 21.1 21.2 21.4 21.5 21.7 21.9 22.4 20.0 20.0 20.1 20.1 20.2 20.2 20.3 20.3 20.3 20.4 20.4 20.5 20.5 20.6 20.6 20.7 20.8 20.9 20.9 21.0 21.1 21.2 21.3 21.5 21.7 22.2 20.0 20.0 20.1 20.1 20.2 20.2 20.3 20.3 20.3 20.4 20.4 20.5 20.5 20.6 20.6 20.7 20.7 20.8 20.9 20.9 21.0 21.0 21.1 21.3 21.5 21.8 20.0 20.0 20.1 20.1 20.2 20.2 20.3 20.3 20.3 20.4 20.4 20.4 20.5 20.5 20.6 20.6 20.7 20.7 20.8 20.8 20.8 20.9 20.9 21.1 21.2 21.5 20.0 20.0 20.1 20.1 20.2 20.2 20.2 20.3 20.3 20.3 20.4 20.4 20.4 20.5 20.5 20.6 20.6 20.6 20.7 20.7 20.7 20.7 20.8 20.9 21.1 21.2 20.0 20.0 20.1 20.1 20.2 20.2 20.2 20.3 20.3 20.3 20.3 20.4 20.4 20.4 20.5 20.5 20.5 20.6 20.6 20.6 20.6 20.6 20.7 20.8 20.9 21.1 20.0 20.0 20.1 20.1 20.2 20.2 20.2 20.2 20.3 20.3 20.3 20.3 20.4 20.4 20.4 20.5 20.5 20.5 20.5 20.5 20.5 20.5 20.6 20.7 20.8 20.9 20.0 20.0 20.1 20.1 20.2 20.2 20.2 20.2 20.2 20.3 20.3 20.3 20.3 20.4 20.4 20.4 20.4 20.4 20.4 20.4 20.4 20.5 20.5 20.6 20.6 20.8 20.0 20.0 20.1 20.1 20.1 20.2 20.2 20.2 20.2 20.2 20.3 20.3 20.3 20.3 20.3 20.4 20.4 20.4 20.4 20.4 20.4 20.4 20.4 20.5 20.5 20.7 20.0 20.0 20.1 20.1 20.1 20.2 20.2 20.2 20.2 20.2 20.2 20.3 20.3 20.3 20.3 20.3 20.3 20.3 20.3 20.3 20.3 20.4 20.4 20.4 20.5 20.6 20.0 20.0 20.1 20.1 20.1 20.1 20.2 20.2 20.2 20.2 20.2 20.2 20.2 20.3 20.3 20.3 20.3 20.3 20.3 20.3 20.3 20.3 20.4 20.4 20.5 20.6 20.0 20.0 20.1 20.1 20.1 20.1 20.1 20.2 20.2 20.2 20.2 20.2 20.2 20.2 20.2 20.2 20.2 20.2 20.2 20.3 20.3 20.3 20.3 20.4 20.4 20.5 20.0 20.0 20.1 20.1 20.1 20.1 20.1 20.1 20.2 20.2 20.2 20.2 20.2 20.2 20.2 20.2 20.2 20.2 20.2 20.2 20.2 20.2 20.3 20.3 20.4 20.4 20.0 20.0 20.1 20.1 20.1 20.1 20.1 20.1 20.1 20.2 20.2 20.2 20.2 20.2 20.2 20.2 20.2 20.2 20.2 20.2 20.2 20.2 20.2 20.3 20.3 20.4 20.0 20.0 20.1 20.1 20.1 20.1 20.1 20.1 20.1 20.1 20.1 20.1 20.2 20.2 20.2 20.2 20.2 20.2 20.2 20.2 20.2 20.2 20.2 20.2 20.3 20.3 20.0 20.0 20.1 20.1 20.1 20.1 20.1 20.1 20.1 20.1 20.1 20.1 20.1 20.1 20.1 20.1 20.1 20.1 20.1 20.1 20.1 20.1 20.1 20.2 20.2 20.2 20.0 20.0 20.1 20.1 20.1 20.1 20.1 20.1 20.1 20.1 20.1 20.1 20.1 20.1 20.1 20.1 20.1 20.1 20.1 20.1 20.1 20.1 20.1 20.1 20.1 20.2 20.0 20.0 20.1 20.1 20.1 20.1 20.1 20.1 20.1 20.1 20.1 20.1 20.1 20.1 20.1 20.1 20.1 20.1 20.1 20.1 20.1 20.1 20.1 20.1 20.1 20.1 20.0 20.0 20.0 20.0 20.0 20.0 20.0 20.0 20.0 20.0 20.0 20.0 20.0 20.0 20.0 20.0 20.0 20.0 20.0 20.0 20.0 20.0 20.0 20.0 20.0 20.0 20.0 20.0 20.0 20.0 20.0 20.0 20.0 20.0 20.0 20.0 20.0 20.0 20.0 20.0 20.0 20.0 20.0 20.0 20.0 20.0 20.0 20.0 20.0 20.0 20.0 20.0 20.0 20.1 20.1 20.2 20.3 20.3 20.4 20.5 20.5 20.6 20.6 20.7 20.8 20.8 20.9 21.0 21.1 21.3 21.5 21.7 21.9 22.3 28.4 58.7 92.1 78.6 20.0 20.1 20.1 20.2 20.3 20.3 20.4 20.4 20.5 20.5 20.6 20.6 20.7 20.7 20.8 20.9 21.0 21.1 21.3 21.5 21.7 22.0 22.7 31.4 53.6 68.2 20.0 20.0 20.1 20.2 20.2 20.3 20.4 20.4 20.4 20.5 20.5 20.5 20.6 20.7 20.7 20.8 20.9 21.1 21.2 21.4 21.6 21.8 22.1 22.7 26.2 32.1 20.0 20.0 20.1 20.1 20.2 20.3 20.3 20.4 20.4 20.4 20.5 20.5 20.6 20.6 20.7 20.8 20.9 21.0 21.2 21.3 21.5 21.7 22.0 22.3 22.7 23.3 20.0 20.0 20.1 20.1 20.2 20.2 20.3 20.3 20.4 20.4 20.4 20.5 20.6 20.6 20.7 20.8 20.9 21.0 21.1 21.3 21.4 21.6 21.8 22.1 22.4 22.8 20.0 20.0 20.1 20.1 20.2 20.2 20.3 20.3 20.4 20.4 20.4 20.5 20.5 20.6 20.7 20.8 20.8 20.9 21.1 21.2 21.3 21.5 21.7 21.9 22.1 22.5 20.0 20.0 20.1 20.1 20.2 20.2 20.3 20.3 20.4 20.4 20.4 20.5 20.5 20.6 20.7 20.7 20.8 20.9 21.0 21.1 21.2 21.3 21.5 21.7 21.9 22.2 20.0 20.0 20.1 20.1 20.2 20.2 20.3 20.3 20.4 20.4 20.4 20.5 20.5 20.6 20.6 20.7 20.8 20.8 20.9 21.0 21.1 21.2 21.3 21.5 21.7 21.9 20.0 20.0 20.1 20.1 20.2 20.2 20.3 20.3 20.3 20.4 20.4 20.5 20.5 20.5 20.6 20.6 20.7 20.8 20.8 20.9 21.0 21.1 21.2 21.3 21.5 21.7 20.0 20.0 20.1 20.1 20.2 20.2 20.3 20.3 20.3 20.4 20.4 20.4 20.5 20.5 20.6 20.6 20.7 20.7 20.8 20.8 20.9 20.9 21.0 21.1 21.3 21.5 20.0 20.0 20.1 20.1 20.2 20.2 20.3 20.3 20.3 20.3 20.4 20.4 20.4 20.5 20.5 20.6 20.6 20.6 20.7 20.7 20.8 20.8 20.9 21.0 21.1 21.3 20.0 20.0 20.1 20.1 20.2 20.2 20.3 20.3 20.3 20.3 20.4 20.4 20.4 20.5 20.5 20.5 20.5 20.6 20.6 20.7 20.7 20.7 20.8 20.9 21.0 21.1 20.0 20.0 20.1 20.1 20.2 20.2 20.2 20.3 20.3 20.3 20.3 20.4 20.4 20.4 20.4 20.5 20.5 20.5 20.6 20.6 20.6 20.6 20.7 20.8 20.8 21.0 20.0 20.0 20.1 20.1 20.2 20.2 20.2 20.2 20.3 20.3 20.3 20.3 20.4 20.4 20.4 20.4 20.4 20.5 20.5 20.5 20.5 20.6 20.6 20.7 20.7 20.9 20.0 20.0 20.1 20.1 20.2 20.2 20.2 20.2 20.2 20.3 20.3 20.3 20.3 20.3 20.4 20.4 20.4 20.4 20.4 20.4 20.5 20.5 20.5 20.6 20.6 20.8 20.0 20.0 20.1 20.1 20.2 20.2 20.2 20.2 20.