<?xml version="1.0"?>
<VTKFile type="RectilinearGrid" version="1.0" byte_order="LittleEndian" header_type="UInt64">
<RectilinearGrid WholeExtent="0 25 0 25 0 15">
<Piece Extent="0 25 0 25 0 15">
<Coordinates>
<DataArray type="Float64" Name="Array X-Axis" format="ascii" RangeMin="0.0" RangeMax="15.0">
0.0 0.6 1.2 1.8 2.4 3.0 3.6 4.2 4.8 5.4 6.0 6.6 7.2 7.8 8.4 9.0 9.6 10.2 10.8 11.4 12.0 12.6 13.2 13.8 14.4 15.0 
</DataArray>
<DataArray type="Float64" Name="Array Y-Axis" format="ascii" RangeMin="0.0" RangeMax="15.0">
0.0 0.6 1.2 1.8 2.4 3.0 3.6 4.2 4.8 5.4 6.0 6.6 7.2 7.8 8.4 9.0 9.6 10.2 10.8 11.4 12.0 12.6 13.2 13.8 14.4 15.0 
</DataArray>
<DataArray type="Float64" Name="Array Z-Axis" format="ascii" RangeMin="0.0" RangeMax="9.0">
0.0 0.6 1.2 1.8 2.4 3.0 3.6 4.2 4.8 5.4 6.0 6.6 7.2 7.8 8.4 9.0 
</DataArray>
</Coordinates>
<PointData>
<DataArray Name="TEMPERATURE" NumberOfComponents="1" type="Float64" format="ascii">
20.0 20.0 20.0 20.0 20.0 20.0 20.0 20.0 20.0 20.0 20.0 20.0 20.0 20.0 20.0 20.0 20.0 20.0 20.0 20.0 20.0 20.0 20.0 20.0 20.0 20.0 20.0 20.0 20.0 20.0 20.0 20.0 20.0 20.0 20.0 20.0 20.0 20.0 20.0 20.0 20.0 20.0 20.0 20.0 20.0 20.0 20.0 20.1 20.1 20.1 20.1 20.1 20.0 20.0 20.1 20.1 20.1 20.1 20.1 20.1 20.1 20.1 20.1 20.1 20.1 20.1 20.1 20.1 20.1 20.1 20.1 20.1 20.1 20.1 20.1 20.1 20.1 20.1 20.0 20.0 20.1 20.1 20.1 20.1 20.1 20.1 20.1 20.1 20.1 20.1 20.1 20.1 20.1 20.1 20.1 20.1 20.1 20.1 20.2 20.2 20.2 20.2 20.2 20.2 20.0 20.0 20.1 20.1 20.1 20.1 20.1 20.1 20.1 20.1 20.1 20.1 20.1 20.1 20.2 20.2 20.2 20.2 20.2 20.2 20.2 20.2 20.2 20.3 20.3 20.3 20.0 20.0 20.1 20.1 20.1 20.2 20.2 20.2 20.2 20.2 20.2 20.2 20.2 20.2 20.2 20.2 20.2 20.2 20.3 20.3 20.3 20.3 20.3 20.3 20.4 20.4 20.0 20.0 20.1 20.1 20.1 20.2 20.2 20.2 20.2 20.2 20.2 20.2 20.2 20.2 20.3 20.3 20.3 20.3 20.3 20.3 20.4 20.4 20.4 20.4 20.4 20.5 20.0 20.0 20.1 20.1 20.1 20.2 20.2 20.2 20.3 20.3 20.3 20.3 20.3 20.3 20.3 20.3 20.3 20.4 20.4 20.4 20.4 20.5 20.5 20.5 20.5 20.6 20.0 20.0 20.0 20.1 20.1 20.2 20.2 20.3 20.3 20.3 20.3 20.4 20.4 20.4 20.4 20.4 20.4 20.4 20.5 20.5 20.5 20.5 20.6 20.6 20.7 20.7 20.0 20.0 20.0 20.1 20.1 20.2 20.2 20.3 20.3 20.3 20.4 20.4 20.4 20.5 20.5 20.5 20.5 20.5 20.5 20.6 20.6 20.6 20.7 20.7 20.8 20.8 20.0 20.0 20.0 20.1 20.1 20.2 20.2 20.3 20.3 20.4 20.4 20.4 20.5 20.5 20.6 20.6 20.6 20.6 20.7 20.7 20.7 20.7 20.8 20.9 20.9 21.0 20.0 20.0 20.0 20.1 20.1 20.1 20.2 20.3 20.3 20.4 20.4 20.5 20.5 20.6 20.6 20.7 20.7 20.8 20.8 20.8 20.8 20.9 20.9 21.0 21.1 21.2 20.0 20.0 20.0 20.1 20.1 20.1 20.2 20.2 20.3 20.4 20.4 20.5 20.6 20.6 20.7 20.7 20.8 20.9 20.9 21.0 21.0 21.0 21.1 21.1 21.2 21.4 20.0 20.0 20.0 20.1 20.1 20.1 20.2 20.2 20.3 20.3 20.4 20.5 20.6 20.6 20.7 20.8 20.9 21.0 21.0 21.1 21.2 21.2 21.3 21.3 21.4 21.6 20.0 20.0 20.0 20.1 20.1 20.1 20.2 20.2 20.3 20.3 20.4 20.5 20.6 20.6 20.7 20.8 20.9 21.0 21.1 21.2 21.3 21.4 21.5 21.6 21.7 21.8 20.0 20.0 20.0 20.1 20.1 20.1 20.2 20.2 20.3 20.3 20.4 20.5 20.6 20.6 20.7 20.8 21.0 21.1 21.2 21.4 21.5 21.6 21.8 21.9 22.0 22.1 20.0 20.0 20.1 20.1 20.1 20.2 20.2 20.2 20.3 20.4 20.4 20.5 20.6 20.7 20.7 20.9 21.0 21.1 21.3 21.5 21.7 21.8 22.0 22.2 22.3 22.5 20.0 20.0 20.1 20.1 20.1 20.2 20.2 20.3 20.3 20.4 20.5 20.5 20.6 20.7 20.8 20.9 21.0 21.2 21.4 21.6 21.8 22.0 22.3 22.5 22.8 23.0 20.0 20.0 20.1 20.1 20.1 20.2 20.2 20.3 20.3 20.4 20.5 20.6 20.7 20.8 20.9 21.0 21.1 21.3 21.4 21.7 21.9 22.2 22.5 22.8 23.2 23.6 20.0 20.0 20.1 20.1 20.1 20.2 20.2 20.3 20.3 20.4 20.5 20.6 20.7 20.8 20.9 21.1 21.2 21.4 21.6 21.8 22.1 22.4 22.8 23.3 23.8 24.3 20.0 20.0 20.0 20.1 20.1 20.1 20.2 20.2 20.3 20.4 20.4 20.5 20.6 20.7 20.9 21.0 21.2 21.4 21.7 22.0 22.3 22.7 23.2 23.8 24.5 25.1 20.0 20.0 20.0 20.1 20.1 20.1 20.2 20.2 20.2 20.3 20.4 20.4 20.5 20.6 20.8 20.9 21.1 21.3 21.6 21.9 22.3 22.8 23.3 24.0 24.9 26.0 20.0 20.0 20.0 20.1 20.1 20.1 20.2 20.2 20.2 20.3 20.3 20.4 20.5 20.6 20.7 20.9 21.1 21.3 21.6 21.8 22.2 22.7 23.2 24.0 24.9 26.2 20.0 20.0 20.0 20.1 20.1 20.1 20.2 20.2 20.3 20.3 20.4 20.5 20.6 20.7 20.8 20.9 21.1 21.3 21.5 21.9 22.3 22.6 23.1 23.8 24.5 25.6 20.0 20.0 20.1 20.1 20.1 20.2 20.2 20.3 20.3 20.4 20.5 20.6 20.7 20.8 20.9 21.0 21.2 21.4 21.6 21.9 22.2 22.5 22.9 23.5 24.1 24.8 20.0 20.0 20.1 20.1 20.2 20.2 20.3 20.3 20.4 20.4 20.5 20.6 20.7 20.8 21.0 21.1 21.2 21.4 21.5 21.8 22.0 22.3 22.6 23.0 23.4 23.0 20.0 20.0 20.0 20.0 20.0 20.0 20.0 20.0 20.0 20.0 20.0 20.0 20.0 20.0 20.0 20.0 20.0 20.0 20.0 20.0 20.0 20.0 20.0 20.0 20.0 20.0 20.0 20.0 20.0 20.0 20.0 20.0 20.0 20.0 20.0 20.0 20.0 20.0 20.0 20.0 20.0 20.0 20.0 20.0 20.0 20.0 20.0 20.0 20.0 20.1 20.1 20.1 20.0 20.0 20.1 20.1 20.1 20.1 20.1 20.0 20.0 20.1 20.1 20.1 20.1 20.1 20.1 20.1 20.1 20.1 20.1 20.1 20.1 20.1 20.1 20.1 20.1 20.1 20.0 20.0 20.1 20.1 20.1 20.1 20.1 20.1 20.1 20.1 20.1 20.1 20.1 20.1 20.1 20.1 20.1 20.1 20.1 20.1 20.1 20.2 20.2 20.2 20.2 20.2 20.0 20.0 20.1 20.1 20.1 20.1 20.1 20.1 20.1 20.1 20.1 20.1 20.1 20.1 20.1 20.1 20.2 20.2 20.2 20.2 20.2 20.2 20.2 20.2 20.3 20.3 20.0 20.0 20.1 20.1 20.1 20.2 20.2 20.2 20.2 20.2 20.2 20.2 20.2 20.2 20.2 20.2 20.2 20.2 20.2 20.2 20.3 20.3 20.3 20.3 20.3 20.4 20.0 20.0 20.1 20.1 20.1 20.2 20.2 20.2 20.2 20.2 20.2 20.2 20.2 20.2 20.2 20.2 20.3 20.3 20.3 20.3 20.3 20.4 20.4 20.4 20.4 20.5 20.0 20.0 20.0 20.1 20.1 20.2 20.2 20.2 20.3 20.3 20.3 20.3 20.3 20.3 20.3 20.3 20.3 20.3 20.4 20.4 20.4 20.4 20.5 20.5 20.5 20.6 20.0 20.0 20.0 20.1 20.1 20.2 20.2 20.2 20.3 20.3 20.3 20.3 20.4 20.4 20.4 20.4 20.4 20.4 20.4 20.4 20.5 20.5 20.6 20.6 20.6 20.7 20.0 20.0 20.0 20.1 20.1 20.2 20.2 20.2 20.3 20.3 20.4 20.4 20.4 20.4 20.5 20.5 20.5 20.5 20.5 20.5 20.6 20.6 20.7 20.7 20.7 20.8 20.0 20.0 20.0 20.1 20.1 20.1 20.2 20.2 20.3 20.3 20.4 20.4 20.5 20.5 20.5 20.6 20.6 20.6 20.6 20.6 20.7 20.7 20.8 20.8 20.9 21.0 20.0 20.0 20.0 20.1 20.1 20.1 20.2 20.2 20.3 20.3 20.4 20.4 20.5 20.5 20.6 20.6 20.7 20.7 20.8 20.8 20.8 20.8 20.9 21.0 21.0 21.1 20.0 20.0 20.0 20.1 20.1 20.1 20.2 20.2 20.3 20.3 20.4 20.5 20.5 20.6 20.6 20.7 20.8 20.8 20.9 20.9 21.0 21.0 21.0 21.1 21.2 21.3 20.0 20.0 20.0 20.1 20.1 20.1 20.2 20.2 20.3 20.3 20.4 20.5 20.5 20.6 20.7 20.8 20.8 20.9 21.0 21.1 21.2 21.2 21.3 21.3 21.4 21.6 20.0 20.0 20.0 20.1 20.1 20.1 20.2 20.2 20.3 20.3 20.4 20.4 20.5 20.6 20.7 20.8 20.9 21.0 21.1 21.2 21.3 21.4 21.5 21.6 21.7 21.9 20.0 20.0 20.0 20.1 20.1 20.1 20.2 20.2 20.2 20.3 20.4 20.4 20.5 20.6 20.7 20.8 20.9 21.1 21.2 21.3 21.5 21.6 21.8 21.9 22.0 22.2 20.0 20.0 20.0 20.1 20.1 20.1 20.2 20.2 20.3 20.3 20.4 20.4 20.5 20.6 20.7 20.8 20.9 21.1 21.3 21.5 21.6 21.8 22.0 22.2 22.4 22.7 20.0 20.0 20.0 20.1 20.1 20.1 20.2 20.2 20.3 20.3 20.4 20.5 20.5 20.6 20.7 20.8 21.0 21.1 21.3 21.5 21.8 22.0 22.3 22.6 22.8 23.2 20.0 20.0 20.1 20.1 20.1 20.1 20.2 20.2 20.3 20.3 20.4 20.5 20.6 20.7 20.8 20.9 21.0 21.2 21.4 21.6 21.9 22.2 22.5 22.9 23.3 23.7 20.0 20.0 20.0 20.1 20.1 20.1 20.2 20.2 20.3 20.3 20.4 20.5 20.6 20.7 20.8 21.0 21.1 21.3 21.6 21.8 22.1 22.5 22.8 23.3 23.8 24.4 20.0 20.0 20.0 20.1 20.1 20.1 20.2 20.2 20.2 20.3 20.4 20.5 20.5 20.6 20.8 21.0 21.2 21.4 21.7 22.0 22.3 22.8 23.3 23.9 24.6 25.4 20.0 20.0 20.0 20.1 20.1 20.1 20.1 20.2 20.2 20.3 20.3 20.4 20.5 20.6 20.7 20.9 21.1 21.3 21.6 21.9 22.4 23.0 23.5 24.3 25.3 26.6 20.0 20.0 20.0 20.1 20.1 20.1 20.1 20.2 20.2 20.3 20.3 20.4 20.5 20.6 20.7 20.9 21.1 21.3 21.6 21.9 22.3 22.9 23.4 24.2 25.4 27.2 20.0 20.0 20.0 20.1 20.1 20.1 20.2 20.2 20.2 20.3 20.3 20.4 20.5 20.6 20.7 20.9 21.1 21.3 21.6 21.9 22.3 22.7 23.2 24.0 24.9 26.3 20.0 20.0 20.1 20.1 20.1 20.2 20.2 20.2 20.3 20.4 20.4 20.5 20.6 20.7 20.9 21.0 21.2 21.4 21.6 21.9 22.2 22.6 23.0 23.5 24.2 25.0 20.0 20.0 20.1 20.1 20.1 20.2 20.2 20.3 20.3 20.4 20.5 20.6 20.7 20.8 20.9 21.0 21.2 21.3 21.5 21.7 22.0 22.3 22.6 23.0 23.5 23.1 20.0 20.0 20.0 20.0 20.0 20.0 20.0 20.0 20.0 20.0 20.0 20.0 20.0 20.0 20.0 20.0 20.0 20.0 20.0 20.0 20.0 20.0 20.0 20.0 20.0 20.0 20.0 20.0 20.0 20.0 20.0 20.0 20.0 20.0 20.0 20.0 20.0 20.0 20.0 20.0 20.0 20.0 20.0 20.0 20.0 20.0 20.0 20.0 20.0 20.0 20.0 20.1 20.0 20.0 20.1 20.1 20.1 20.0 20.0 20.0 20.0 20.0 20.0 20.0 20.0 20.1 20.1 20.1 20.1 20.1 20.1 20.1 20.1 20.1 20.1 20.1 20.1 20.1 20.0 20.0 20.1 20.1 20.1 20.1 20.1 20.1 20.1 20.1 20.1 20.1 20.1 20.1 20.1 20.1 20.1 20.1 20.1 20.1 20.1 20.1 20.1 20.2 20.2 20.2 20.0 20.0 20.1 20.1 20.1 20.1 20.1 20.1 20.1 20.1 20.1 20.1 20.1 20.1 20.1 20.1 20.1 20.1 20.2 20.2 20.2 20.2 20.2 20.2 20.2 20.2 20.0 20.0 20.0 20.1 20.1 20.1 20.1 20.1 20.2 20.2 20.2 20.2 20.2 20.2 20.2 20.2 20.2 20.2 20.2 20.2 20.2 20.2 20.3 20.3 20.3 20.3 20.0 20.0 20.0 20.1 20.1 20.1 20.2 20.2 20.2 20.2 20.2 20.2 20.2 20.2 20.2 20.2 20.2 20.2 20.3 20.3 20.3 20.3 20.3 20.4 20.4 20.4 20.0 20.0 20.0 20.1 20.1 20.1 20.2 20.2 20.2 20.2 20.2 20.3 20.3 20.3 20.3 20.3 20.3 20.3 20.3 20.3 20.4 20.4 20.4 20.4 20.5 20.5 20.0 20.0 20.0 20.1 20.1 20.1 20.2 20.2 20.2 20.3 20.3 20.3 20.3 20.3 20.3 20.4 20.4 20.4 20.4 20.4 20.4 20.5 20.5 20.5 20.6 20.6 20.0 20.0 20.0 20.1 20.1 20.1 20.2 20.2 20.2 20.3 20.3 20.3 20.4 20.4 20.4 20.4 20.4 20.5 20.5 20.5 20.5 20.6 20.6 20.7 20.7 20.8 20.0 20.0 20.0 20.1 20.1 20.1 20.2 20.2 20.3 20.3 20.3 20.4 20.4 20.4 20.5 20.5 20.5 20.6 20.6 20.6 20.6 20.7 20.7 20.8 20.9 20.9 20.0 20.0 20.0 20.1 20.1 20.1 20.2 20.2 20.3 20.3 20.3 20.4 20.4 20.5 20.5 20.6 20.6 20.7 20.7 20.8 20.8 20.8 20.9 20.9 21.0 21.1 20.0 20.0 20.0 20.1 20.1 20.1 20.2 20.2 20.2 20.3 20.3 20.4 20.5 20.5 20.6 20.6 20.7 20.8 20.8 20.9 20.9 21.0 21.0 21.1 21.2 21.3 20.0 20.0 20.0 20.1 20.1 20.1 20.1 20.2 20.2 20.3 20.3 20.4 20.5 20.5 20.6 20.7 20.7 20.8 20.9 21.0 21.1 21.2 21.3 21.3 21.4 21.6 20.0 20.0 20.0 20.1 20.1 20.1 20.1 20.2 20.2 20.3 20.3 20.4 20.5 20.5 20.6 20.7 20.8 20.9 21.0 21.2 21.3 21.4 21.5 21.6 21.7 21.9 20.0 20.0 20.0 20.1 20.1 20.1 20.1 20.2 20.2 20.3 20.3 20.4 20.4 20.5 20.6 20.7 20.8 21.0 21.1 21.3 21.5 21.6 21.8 21.9 22.1 22.4 20.0 20.0 20.0 20.1 20.1 20.1 20.1 20.2 20.2 20.2 20.3 20.3 20.4 20.5 20.6 20.7 20.9 21.0 21.2 21.4 21.6 21.8 22.0 22.3 22.5 22.8 20.0 20.0 20.0 20.1 20.1 20.1 20.1 20.2 20.2 20.2 20.3 20.3 20.4 20.5 20.7 20.9 21.0 21.1 21.3 21.5 21.8 22.0 22.3 22.6 23.0 23.4 20.0 20.0 20.0 20.1 20.1 20.1 20.1 20.2 20.2 20.2 20.3 20.4 20.4 20.6 20.8 21.0 21.1 21.2 21.4 21.7 21.9 22.2 22.6 23.0 23.5 24.2 20.0 20.0 20.0 20.1 20.1 20.1 20.1 20.2 20.2 20.2 20.3 20.4 20.4 20.6 20.9 21.2 21.2 21.4 21.6 21.8 22.1 22.5 23.0 23.4 24.0 24.9 20.0 20.0 20.0 20.0 20.1 20.1 20.1 20.1 20.2 20.2 20.3 20.4 20.4 20.6 20.9 21.2 21.3 21.5 21.7 22.0 22.4 22.9 23.4 24.1 24.8 25.8 20.0 20.0 20.0 20.0 20.1 20.1 20.1 20.1 20.2 20.2 20.3 20.4 20.4 20.6 21.0 21.3 21.3 21.5 21.7 22.0 22.5 23.1 23.8 24.6 25.7 27.2 20.0 20.0 20.0 20.0 20.1 20.1 20.1 20.1 20.2 20.2 20.3 20.4 20.4 20.6 20.9 21.2 21.3 21.4 21.7 22.0 22.5 23.1 23.7 24.6 26.0 28.0 20.0 20.0 20.0 20.0 20.1 20.1 20.1 20.1 20.2 20.2 20.3 20.4 20.5 20.6 20.9 21.1 21.2 21.4 21.7 22.0 22.5 22.9 23.4 24.3 25.3 26.9 20.0 20.0 20.0 20.1 20.1 20.1 20.2 20.2 20.2 20.3 20.4 20.4 20.6 20.7 20.8 21.0 21.2 21.4 21.6 21.9 22.2 22.6 23.1 23.7 24.4 25.2 20.0 20.0 20.0 20.1 20.1 20.1 20.2 20.2 20.3 20.3 20.4 20.5 20.6 20.7 20.8 21.0 21.1 21.3 21.5 21.7 22.0 22.3 22.7 23.1 23.7 23.3 20.0 20.0 20.0 20.0 20.0 20.0 20.0 20.0 20.0 20.0 20.0 20.0 20.0 20.0 20.0 20.0 20.0 20.0 20.0 20.0 20.0 20.0 20.0 20.0 20.0 20.0 20.0 20.0 20.0 20.0 20.0 20.0 20.0 20.0 20.0 20.0 20.0 20.0 20.0 20.0 20.0 20.0 20.0 20.0 20.0 20.0 20.0 20.0 20.0 20.0 20.0 20.1 20.0 20.0 20.1 20.1 20.0 20.0 20.0 20.0 20.0 20.0 20.0 20.0 20.0 20.0 20.1 20.1 20.1 20.1 20.1 20.1 20.1 20.1 20.1 20.1 20.1 20.1 20.0 20.0 20.1 20.1 20.1 20.1 20.1 20.1 20.1 20.1 20.1 20.1 20.1 20.1 20.1 20.1 20.1 20.1 20.1 20.1 20.1 20.1 20.1 20.2 20.2 20.2 20.0 20.0 20.1 20.1 20.1 20.1 20.1 20.1 20.1 20.2 20.1 20.1 20.1 20.1 20.1 20.1 20.1 20.1 20.2 20.2 20.2 20.2 20.2 20.2 20.2 20.3 20.0 20.0 20.0 20.1 20.1 20.1 20.1 20.1 20.2 20.2 20.2 20.2 20.2 20.2 20.2 20.2 20.2 20.2 20.2 20.2 20.2 20.3 20.3 20.3 20.3 20.3 20.0 20.0 20.0 20.1 20.1 20.1 20.2 20.2 20.2 20.2 20.2 20.2 20.2 20.2 20.2 20.2 20.2 20.3 20.3 20.3 20.3 20.3 20.3 20.4 20.4 20.4 20.0 20.0 20.0 20.1 20.1 20.1 20.2 20.2 20.2 20.2 20.2 20.3 20.3 20.3 20.3 20.3 20.3 20.3 20.3 20.4 20.4 20.4 20.4 20.5 20.5 20.5 20.0 20.0 20.0 20.1 20.1 20.1 20.2 20.2 20.2 20.2 20.3 20.3 20.3 20.3 20.3 20.4 20.4 20.4 20.4 20.4 20.5 20.5 20.5 20.6 20.6 20.7 20.0 20.0 20.0 20.1 20.1 20.1 20.2 20.2 20.2 20.3 20.3 20.3 20.3 20.4 20.4 20.4 20.4 20.5 20.5 20.5 20.6 20.6 20.6 20.7 20.7 20.8 20.0 20.0 20.0 20.1 20.1 20.1 20.2 20.2 20.2 20.3 20.3 20.3 20.4 20.4 20.4 20.5 20.5 20.6 20.6 20.6 20.7 20.7 20.8 20.8 20.9 21.0 20.0 20.0 20.0 20.1 20.1 20.1 20.2 20.2 20.2 20.3 20.3 20.4 20.4 20.4 20.5 20.5 20.6 20.6 20.7 20.8 20.8 20.9 20.9 21.0 21.1 21.2 20.0 20.0 20.0 20.1 20.1 20.1 20.2 20.2 20.2 20.3 20.3 20.4 20.4 20.5 20.5 20.6 20.6 20.7 20.8 20.9 20.9 21.0 21.1 21.2 21.3 21.4 20.0 20.0 20.0 20.1 20.1 20.1 20.1 20.2 20.2 20.3 20.3 20.4 20.4 20.5 20.6 20.6 20.7 20.8 20.9 21.0 21.1 21.2 21.3 21.4 21.5 21.7 20.0 20.0 20.0 20.1 20.1 20.1 20.1 20.2 20.2 20.3 20.3 20.4 20.4 20.5 20.6 20.7 20.8 21.1 21.3 21.3 21.3 21.4 21.5 21.7 21.8 22.0 20.0 20.0 20.0 20.1 20.1 20.1 20.1 20.2 20.2 20.2 20.3 20.4 20.4 20.5 20.6 20.7 20.8 21.2 21.5 21.5 21.5 21.6 21.8 22.0 22.2 22.4 20.0 20.0 20.0 20.0 20.1 20.1 20.1 20.1 20.2 20.2 20.3 20.4 20.4 20.5 20.7 20.8 20.9 21.1 21.4 21.5 21.7 21.9 22.1 22.3 22.6 23.0 20.0 20.0 20.0 20.0 20.1 20.1 20.1 20.1 20.2 20.2 20.3 20.3 20.4 20.5 20.9 21.2 21.1 21.2 21.4 21.6 21.8 22.1 22.3 22.7 23.1 23.6 20.0 20.0 20.0 20.0 20.1 20.1 20.1 20.1 20.2 20.3 20.3 20.3 20.4 20.4 21.2 21.8 21.5 21.4 21.5 21.7 22.0 22.3 22.7 23.1 23.7 25.0 20.0 20.0 20.0 20.0 20.1 20.1 20.1 20.1 20.2 20.3 20.3 20.3 20.4 20.4 21.5 22.3 21.7 21.6 21.7 21.9 22.2 22.6 23.1 23.6 24.2 26.5 20.0 20.0 20.0 20.0 20.1 20.1 20.1 20.1 20.2 20.3 20.3 20.3 20.4 20.4 21.7 22.6 21.9 21.8 21.9 22.1 22.5 23.0 23.6 24.4 25.2 28.0 20.0 20.0 20.0 20.0 20.1 20.1 20.1 20.1 20.2 20.3 20.3 20.4 20.4 20.4 21.9 22.9 22.1 21.8 22.0 22.2 22.6 23.2 24.0 25.1 26.4 29.5 20.0 20.0 20.0 20.0 20.1 20.1 20.1 20.1 20.2 20.3 20.4 20.4 20.5 20.5 21.9 22.9 22.1 21.8 22.0 22.2 22.6 23.2 24.0 25.0 26.9 30.3 20.0 20.0 20.0 20.0 20.1 20.1 20.1 20.1 20.2 20.3 20.4 20.4 20.5 20.6 21.4 22.0 21.6 21.6 21.8 22.1 22.5 23.0 23.6 24.5 26.0 28.5 20.0 20.0 20.0 20.1 20.1 20.1 20.1 20.2 20.2 20.3 20.4 20.5 20.6 20.7 20.9 21.1 21.2 21.4 21.6 21.9 22.2 22.6 23.2 23.8 24.6 25.6 20.0 20.0 20.0 20.1 20.1 20.1 20.2 20.2 20.3 20.3 20.4 20.5 20.6 20.7 20.8 20.9 21.1 21.3 21.5 21.7 22.0 22.3 22.8 23.3 23.9 23.5 20.0 20.0 20.0 20.0 20.0 20.0 20.0 20.0 20.0 20.0 20.0 20.0 20.0 20.0 20.0 20.0 20.0 20.0 20.0 20.0 20.0 20.0 20.0 20.0 20.0 20.0 20.0 20.0 20.0 20.0 20.0 20.0 20.0 20.0 20.0 20.0 20.0 20.0 20.0 20.0 20.0 20.0 20.0 20.0 20.0 20.0 20.0 20.0 20.0 20.1 20.1 20.1 20.0 20.0 20.1 20.1 20.1 20.0 20.0 20.0 20.0 20.0 20.1 20.1 20.1 20.1 20.1 20.1 20.1 20.1 20.1 20.1 20.1 20.1 20.1 20.1 20.1 20.1 20.0 20.0 20.1 20.1 20.1 20.1 20.1 20.1 20.1 20.1 20.1 20.1 20.1 20.1 20.1 20.1 20.1 20.1 20.1 20.1 20.1 20.2 20.2 20.2 20.2 20.2 20.0 20.0 20.1 20.1 20.1 20.1 20.1 20.1 20.2 20.2 20.2 20.1 20.1 20.1 20.1 20.1 20.2 20.2 20.2 20.2 20.2 20.2 20.2 20.2 20.3 20.3 20.0 20.0 20.1 20.1 20.1 20.2 20.2 20.2 20.2 20.2 20.2 20.2 20.2 20.2 20.2 20.2 20.2 20.2 20.3 20.3 20.3 20.3 20.3 20.3 20.3 20.4 20.0 20.0 20.0 20.1 20.1 20.1 20.2 20.2 20.2 20.2 20.3 20.3 20.2 20.2 20.3 20.3 20.3 20.3 20.3 20.3 20.4 20.4 20.4 20.4 20.4 20.5 20.0 20.0 20.0 20.1 20.1 20.1 20.2 20.2 20.2 20.3 20.3 20.3 20.3 20.3 20.3 20.3 20.4 20.4 20.4 20.4 20.4 20.5 20.5 20.5 20.5 20.6 20.0 20.0 20.0 20.1 20.1 20.1 20.2 20.2 20.2 20.3 20.3 20.3 20.3 20.4 20.4 20.4 20.4 20.5 20.5 20.5 20.5 20.6 20.6 20.6 20.7 20.7 20.0 20.0 20.0 20.1 20.1 20.1 20.2 20.2 20.2 20.3 20.3 20.3 20.4 20.4 20.4 20.5 20.5 20.5 20.6 20.6 20.7 20.7 20.7 20.8 20.8 20.9 20.0 20.0 20.0 20.1 20.1 20.1 20.2 20.2 20.3 20.3 20.3 20.4 20.4 20.4 20.5 20.5 20.6 20.6 20.7 20.7 20.8 20.8 20.9 20.9 21.0 21.0 20.0 20.0 20.0 20.1 20.1 20.1 20.2 20.2 20.3 20.3 20.3 20.4 20.4 20.5 20.5 20.6 20.6 20.7 20.8 20.8 20.9 21.0 21.0 21.1 21.2 21.2 20.0 20.0 20.0 20.1 20.1 20.1 20.2 20.2 20.3 20.3 20.4 20.4 20.5 20.5 20.6 20.6 20.7 20.8 20.9 21.0 21.0 21.1 21.2 21.3 21.4 21.5 20.0 20.0 20.0 20.1 20.1 20.1 20.2 20.2 20.3 20.3 20.4 20.4 20.5 20.5 20.6 20.7 20.8 20.9 21.1 21.2 21.2 21.3 21.4 21.5 21.6 21.8 20.0 20.0 20.0 20.1 20.1 20.1 20.2 20.2 20.2 20.3 20.4 20.4 20.5 20.6 20.7 20.7 20.8 21.3 21.6 21.5 21.4 21.5 21.6 21.7 21.9 22.1 20.0 20.0 20.0 20.1 20.1 20.1 20.1 20.2 20.2 20.3 20.3 20.4 20.5 20.6 20.7 20.8 20.9 21.5 21.9 21.8 21.7 21.7 21.8 22.0 22.2 22.5 20.0 20.0 20.0 20.1 20.1 20.1 20.1 20.2 20.2 20.3 20.4 20.4 20.5 20.6 20.8 20.9 21.1 21.4 21.6 21.7 21.8 21.9 22.1 22.4 22.6 23.0 20.0 20.0 20.0 20.1 20.1 20.1 20.1 20.2 20.3 20.3 20.3 20.4 20.6 20.7 21.1 21.4 21.3 21.4 21.6 21.7 21.9 22.1 22.4 22.7 23.1 23.8 20.0 20.0 20.0 20.0 20.1 20.1 20.1 20.2 20.3 20.2 20.2 20.4 20.7 20.7 21.5 22.2 21.8 21.7 21.8 21.9 22.1 22.4 22.7 23.2 23.7 26.7 20.0 20.0 20.0 20.0 20.1 20.1 20.1 20.3 20.3 20.2 20.2 20.4 20.8 20.8 22.0 22.9 22.4 22.1 22.1 22.1 22.4 22.8 23.2 23.8 24.6 32.2 20.0 20.0 20.0 20.0 20.1 20.1 20.1 20.3 20.3 20.2 20.2 20.5 20.8 20.9 22.4 23.6 22.9 22.4 22.3 22.3 22.6 23.1 23.7 24.7 25.9 34.5 20.0 20.0 20.0 20.0 20.1 20.1 20.1 20.3 20.4 20.3 20.2 20.5 20.8 20.9 22.6 24.0 23.2 22.6 22.5 22.5 22.8 23.3 24.1 25.4 27.2 33.6 20.0 20.0 20.0 20.0 20.1 20.1 20.1 20.3 20.4 20.3 20.2 20.5 20.8 20.9 22.7 24.1 23.2 22.7 22.5 22.6 22.8 23.3 24.2 25.4 27.8 34.3 20.0 20.0 20.0 20.0 20.1 20.1 20.1 20.3 20.4 20.4 20.4 20.6 20.9 21.0 22.1 22.9 22.4 22.2 22.2 22.4 22.7 23.1 23.8 25.0 26.9 31.7 20.0 20.0 20.0 20.1 20.1 20.1 20.2 20.2 20.3 20.4 20.5 20.6 20.8 20.9 21.2 21.4 21.5 21.6 21.8 22.1 22.4 22.8 23.3 24.2 25.3 26.8 20.0 20.0 20.1 20.1 20.1 20.2 20.2 20.3 20.3 20.4 20.5 20.6 20.7 20.8 20.9 21.0 21.2 21.4 21.6 21.9 22.1 22.5 22.9 23.5 24.2 23.7 20.0 20.0 20.0 20.0 20.0 20.0 20.0 20.0 20.0 20.0 20.0 20.0 20.0 20.0 20.0 20.0 20.0 20.0 20.0 20.0 20.0 20.0 20.0 20.0 20.0 20.0 20.0 20.0 20.0 20.0 20.0 20.0 20.0 20.0 20.0 20.0 20.0 20.0 20.0 20.0 20.0 20.0 20.0 20.0 20.0 20.0 20.0 20.1 20.1 20.1 20.1 20.1 20.0 20.0 20.1 20.1 20.1 20.1 20.1 20.1 20.1 20.1 20.1 20.1 20.1 20.1 20.1 20.1 20.1 20.1 20.1 20.1 20.1 20.1 20.1 20.1 20.1 20.1 20.0 20.0 20.1 20.1 20.1 20.1 20.1 20.1 20.1 20.1 20.1 20.1 20.1 20.1 20.1 20.1 20.1 20.2 20.2 20.2 20.2 20.2 20.2 20.2 20.2 20.2 20.0 20.0 20.1 20.1 20.1 20.1 20.1 20.1 20.1 20.2 20.2 20.2 20.2 20.2 20.2 20.2 20.2 20.2 20.2 20.2 20.2 20.3 20.3 20.3 20.3 20.3 20.0 20.0 20.1 20.1 20.1 20.2 20.2 20.2 20.2 20.2 20.2 20.2 20.2 20.2 20.2 20.3 20.3 20.3 20.3 20.3 20.3 20.3 20.4 20.4 20.4 20.4 20.0 20.0 20.1 20.1 20.1 20.2 20.2 20.2 20.2 20.3 20.3 20.3 20.3 20.3 20.3 20.3 20.4 20.4 20.4 20.4 20.4 20.4 20.4 20.5 20.5 20.5 20.0 20.0 20.1 20.1 20.1 20.2 20.2 20.2 20.3 20.3 20.3 20.4 20.4 20.4 20.4 20.4 20.4 20.5 20.5 20.5 20.5 20.5 20.5 20.6 20.6 20.7 20.0 20.0 20.1 20.1 20.1 20.2 20.2 20.2 20.3 20.3 20.4 20.4 20.4 20.4 20.5 20.5 20.5 20.6 20.6 20.6 20.6 20.6 20.7 20.7 20.7 20.8 20.0 20.0 20.1 20.1 20.1 20.2 20.2 20.3 20.3 20.3 20.4 20.4 20.5 20.5 20.5 20.6 20.6 20.6 20.7 20.7 20.8 20.8 20.8 20.9 20.9 20.9 20.0 20.0 20.1 20.1 20.1 20.2 20.2 20.3 20.3 20.3 20.4 20.4 20.5 20.5 20.6 20.6 20.7 20.7 20.8 20.8 20.9 20.9 21.0 21.0 21.1 21.1 20.0 20.0 20.1 20.1 20.1 20.2 20.2 20.3 20.3 20.4 20.4 20.5 20.5 20.6 20.6 20.7 20.8 20.8 20.9 21.0 21.0 21.1 21.1 21.2 21.3 21.3 20.0 20.0 20.0 20.1 20.1 20.2 20.2 20.3 20.3 20.4 20.4 20.5 20.5 20.6 20.7 20.7 20.8 20.9 21.0 21.1 21.2 21.2 21.3 21.4 21.5 21.6 20.0 20.0 20.0 20.1 20.1 20.2 20.2 20.3 20.3 20.4 20.4 20.5 20.6 20.7 20.7 20.8 20.9 21.1 21.3 21.3 21.4 21.4 21.5 21.6 21.7 21.8 20.0 20.0 20.0 20.1 20.1 20.2 20.2 20.3 20.3 20.4 20.4 20.5 20.6 20.7 20.8 20.9 21.0 21.4 21.6 21.6 21.6 21.6 21.7 21.9 22.0 22.2 20.0 20.0 20.0 20.1 20.1 20.1 20.2 20.2 20.3 20.4 20.4 20.5 20.6 20.7 20.8 20.9 21.1 21.4 21.7 21.8 21.8 21.8 21.9 22.1 22.3 22.6 20.0 20.0 20.0 20.1 20.1 20.1 20.2 20.2 20.3 20.4 20.5 20.5 20.6 20.8 20.9 21.0 21.2 21.4 21.7 21.8 22.0 22.1 22.2 22.4 22.7 23.2 20.0 20.0 20.0 20.1 20.1 20.1 20.2 20.3 20.4 20.4 20.5 20.6 20.8 20.9 21.1 21.2 21.4 21.5 21.7 21.9 22.1 22.3 22.5 22.8 23.2 24.4 20.0 20.0 20.0 20.1 20.1 20.1 20.1 20.4 20.5 20.4 20.4 20.7 21.0 21.2 21.4 21.7 21.7 21.8 21.9 22.1 22.3 22.5 22.8 23.3 24.4 28.6 20.0 20.0 20.0 20.1 20.1 20.1 20.1 20.4 20.5 20.4 20.4 20.8 21.2 21.4 21.8 22.3 22.5 22.4 22.3 22.4 22.6 22.9 23.3 24.0 25.8 36.3 20.0 20.0 20.0 20.1 20.1 20.1 20.1 20.4 20.5 20.4 20.4 20.8 21.2 21.4 22.1 23.0 23.2 23.0 22.7 22.7 22.9 23.3 23.9 24.9 27.0 44.3 20.0 20.0 20.0 20.1 20.1 20.1 20.2 20.4 20.6 20.4 20.4 20.8 21.2 21.4 22.2 23.2 23.6 23.4 23.1 22.9 23.1 23.5 24.4 25.9 30.4 54.2 20.0 20.0 20.0 20.1 20.1 20.1 20.2 20.5 20.6 20.4 20.4 20.8 21.2 21.4 22.2 23.1 23.4 23.3 23.1 23.0 23.2 23.8 25.8 28.1 34.1 64.4 20.0 20.0 20.0 20.1 20.1 20.1 20.2 20.4 20.5 20.5 20.6 20.8 21.1 21.3 21.9 22.5 22.7 22.6 22.6 22.7 22.9 23.6 25.4 28.2 34.6 63.5 20.0 20.0 20.1 20.1 20.1 20.2 20.2 20.3 20.5 20.6 20.7 20.8 20.9 21.1 21.3 21.6 21.7 21.8 22.0 22.2 22.5 23.0 23.6 25.4 30.0 44.0 20.0 20.0 20.1 20.1 20.2 20.2 20.3 20.3 20.4 20.5 20.6 20.7 20.8 20.9 21.0 21.2 21.4 21.6 21.8 22.0 22.3 22.6 23.0 23.7 24.9 25.7 20.0 20.0 20.0 20.0 20.0 20.0 20.0 20.0 20.0 20.0 20.0 20.0 20.0 20.0 20.0 20.0 20.0 20.0 20.0 20.0 20.0 20.0 20.0 20.0 20.0 20.0 20.0 20.0 20.1 20.0 20.0 20.0 20.0 20.0 20.0 20.0 20.0 20.0 20.0 20.0 20.0 20.0 20.0 20.0 20.0 20.1 20.1 20.1 20.1 20.1 20.1 20.1 20.0 20.0 20.1 20.1 20.1 20.1 20.1 20.1 20.1 20.1 20.1 20.1 20.1 20.1 20.1 20.1 20.1 20.1 20.1 20.1 20.1 20.1 20.1 20.1 20.1 20.2 20.0 20.0 20.1 20.1 20.1 20.1 20.1 20.1 20.1 20.1 20.1 20.1 20.1 20.1 20.1 20.1 20.2 20.2 20.2 20.2 20.2 20.2 20.2 20.2 20.2 20.2 20.0 20.0 20.1 20.1 20.2 20.2 20.2 20.2 20.2 20.2 20.2 20.2 20.2 20.2 20.2 20.2 20.2 20.2 20.2 20.2 20.3 20.3 20.3 20.3 20.3 20.3 20.0 20.0 20.1 20.1 20.2 20.2 20.2 20.2 20.2 20.2 20.3 20.3 20.3 20.3 20.3 20.3 20.3 20.3 20.3 20.3 20.3 20.4 20.4 20.4 20.4 20.4 20.0 20.0 20.1 20.1 20.2 20.2 20.2 20.3 20.3 20.3 20.3 20.3 20.3 20.4 20.4 20.4 20.4 20.4 20.4 20.4 20.4 20.4 20.5 20.5 20.5 20.6 20.0 20.0 20.1 20.1 20.2 20.2 20.2 20.3 20.3 20.3 20.4 20.4 20.4 20.4 20.5 20.5 20.5 20.5 20.5 20.5 20.5 20.6 20.6 20.6 20.6 20.7 20.0 20.0 20.1 20.1 20.2 20.2 20.3 20.3 20.3 20.4 20.4 20.4 20.5 20.5 20.5 20.6 20.6 20.6 20.7 20.7 20.7 20.7 20.7 20.7 20.8 20.8 20.0 20.0 20.1 20.1 20.2 20.2 20.3 20.3 20.4 20.4 20.4 20.5 20.5 20.6 20.6 20.7 20.7 20.7 20.8 20.8 20.8 20.8 20.9 20.9 20.9 21.0 20.0 20.0 20.1 20.1 20.2 20.2 20.3 20.3 20.4 20.4 20.5 20.5 20.6 20.6 20.7 20.7 20.8 20.8 20.9 20.9 21.0 21.0 21.0 21.1 21.1 21.2 20.0 20.0 20.1 20.1 20.2 20.2 20.3 20.3 20.4 20.4 20.5 20.6 20.6 20.7 20.7 20.8 20.9 20.9 21.0 21.1 21.1 21.2 21.2 21.3 21.3 21.4 20.0 20.0 20.1 20.1 20.2 20.2 20.3 20.3 20.4 20.5 20.5 20.6 20.6 20.7 20.8 20.9 21.0 21.1 21.1 21.2 21.3 21.3 21.4 21.5 21.6 21.6 20.0 20.0 20.1 20.1 20.1 20.2 20.3 20.3 20.4 20.5 20.5 20.6 20.7 20.8 20.9 20.9 21.1 21.2 21.3 21.4 21.5 21.5 21.6 21.7 21.8 21.9 20.0 20.0 20.1 20.1 20.1 20.2 20.3 20.3 20.4 20.5 20.5 20.6 20.7 20.8 20.9 21.0 21.2 21.4 21.5 21.6 21.6 21.7 21.8 22.0 22.1 22.2 20.0 20.0 20.1 20.1 20.1 20.2 20.3 20.3 20.4 20.5 20.5 20.6 20.7 20.8 21.0 21.1 21.2 21.4 21.6 21.7 21.8 21.9 22.0 22.2 22.4 22.7 20.0 20.0 20.1 20.1 20.1 20.2 20.2 20.3 20.4 20.5 20.6 20.7 20.8 20.9 21.0 21.1 21.3 21.5 21.7 21.8 22.0 22.1 22.3 22.5 22.7 23.3 20.0 20.0 20.1 20.1 20.1 20.2 20.2 20.4 20.5 20.6 20.7 20.8 20.9 20.9 21.0 21.2 21.4 21.5 21.7 21.9 22.1 22.3 22.5 22.8 23.2 24.8 20.0 20.0 20.1 20.1 20.1 20.2 20.2 20.4 20.6 20.7 20.8 20.9 21.0 21.1 21.2 21.4 21.6 21.7 21.9 22.1 22.3 22.6 22.9 23.3 24.7 28.6 20.0 20.0 20.1 20.1 20.1 20.2 20.2 20.4 20.6 20.7 20.8 20.9 21.1 21.3 21.5 21.8 22.0 22.2 22.3 22.4 22.7 23.0 23.6 25.1 27.9 36.2 20.0 20.0 20.1 20.1 20.1 20.2 20.2 20.4 20.6 20.7 20.8 21.0 21.1 21.3 21.6 22.2 22.8 22.9 22.9 23.0 23.2 23.9 24.7 27.2 36.2 65.2 20.0 20.0 20.0 20.1 20.1 20.2 20.2 20.4 20.6 20.7 20.8 21.0 21.1 21.3 21.6 22.3 22.9 23.3 23.4 23.3 23.5 24.2 26.0 30.8 53.7 112.1 20.0 20.0 20.0 20.1 20.1 20.2 20.2 20.4 20.6 20.7 20.8 21.0 21.1 21.3 21.6 22.1 22.6 23.1 23.3 23.3 23.5 24.2 29.7 40.1 66.3 137.2 20.0 20.0 20.1 20.1 20.1 20.2 20.2 20.4 20.6 20.7 20.8 20.9 21.1 21.2 21.5 21.9 22.2 22.5 22.8 22.9 23.1 24.0 29.3 41.7 61.7 113.7 20.0 20.0 20.1 20.1 20.2 20.2 20.3 20.4 20.5 20.6 20.7 20.9 21.0 21.1 21.3 21.5 21.7 21.9 22.2 22.4 22.7 23.2 24.5 30.8 41.6 59.9 20.0 20.0 20.1 20.2 20.2 20.3 20.4 20.4 20.5 20.6 20.7 20.8 20.9 21.0 21.2 21.3 21.5 21.7 22.0 22.2 22.5 22.8 23.2 24.1 25.7 26.9 20.0 20.0 20.0 20.0 20.0 20.0 20.0 20.0 20.0 20.0 20.0 20.0 20.0 20.0 20.0 20.0 20.0 20.0 20.0 20.0 20.0 20.0 20.0 20.0 20.0 20.0 20.0 20.0 20.1 20.0 20.0 20.0 20.0 20.0 20.0 20.0 20.0 20.0 20.0 20.0 20.0 20.0 20.0 20.0 20.1 20.1 20.1 20.1 20.1 20.1 20.1 20.1 20.0 20.1 20.1 20.1 20.1 20.1 20.1 20.1 20.1 20.1 20.1 20.1 20.1 20.1 20.1 20.1 20.1 20.1 20.1 20.1 20.1 20.1 20.1 20.1 20.1 20.2 20.0 20.1 20.1 20.1 20.2 20.2 20.1 20.1 20.1 20.1 20.1 20.1 20.1 20.1 20.2 20.2 20.2 20.2 20.2 20.2 20.2 20.2 20.2 20.2 20.2 20.2 20.0 20.0 20.1 20.2 20.2 20.2 20.2 20.2 20.2 20.2 20.2 20.2 20.2 20.2 20.2 20.2 20.2 20.2 20.3 20.3 20.3 20.3 20.3 20.3 20.3 20.3 20.0 20.0 20.1 20.1 20.2 20.2 20.2 20.3 20.3 20.3 20.3 20.3 20.3 20.3 20.3 20.3 20.3 20.3 20.3 20.3 20.3 20.4 20.4 20.4 20.4 20.5 20.0 20.0 20.1 20.1 20.2 20.2 20.3 20.3 20.3 20.3 20.4 20.4 20.4 20.4 20.4 20.4 20.4 20.4 20.4 20.4 20.5 20.5 20.5 20.5 20.5 20.6 20.0 20.0 20.1 20.1 20.2 20.3 20.3 20.3 20.4 20.4 20.4 20.4 20.5 20.5 20.5 20.5 20.5 20.6 20.6 20.6 20.6 20.6 20.6 20.6 20.6 20.7 20.0 20.0 20.1 20.1 20.2 20.3 20.3 20.4 20.4 20.4 20.5 20.5 20.5 20.6 20.6 20.6 20.7 20.7 20.7 20.7 20.7 20.7 20.8 20.8 20.8 20.8 20.0 20.0 20.1 20.1 20.2 20.3 20.3 20.4 20.4 20.5 20.5 20.5 20.6 20.6 20.7 20.7 20.8 20.8 20.8 20.9 20.9 20.9 20.9 21.0 21.0 21.0 20.0 20.0 20.1 20.1 20.2 20.3 20.3 20.4 20.4 20.5 20.5 20.6 20.6 20.7 20.8 20.8 20.9 20.9 21.0 21.0 21.0 21.1 21.1 21.2 21.2 21.2 20.0 20.0 20.1 20.1 20.2 20.3 20.3 20.4 20.5 20.5 20.6 20.6 20.7 20.8 20.8 20.9 21.0 21.0 21.1 21.2 21.2 21.3 21.3 21.4 21.4 21.5 20.0 20.0 20.1 20.1 20.2 20.2 20.3 20.4 20.5 20.5 20.6 20.7 20.7 20.8 20.9 21.0 21.0 21.1 21.2 21.3 21.4 21.4 21.5 21.6 21.7 21.8 20.0 20.0 20.1 20.1 20.2 20.2 20.3 20.4 20.5 20.5 20.6 20.7 20.8 20.8 20.9 21.0 21.1 21.2 21.3 21.4 21.5 21.6 21.7 21.8 21.9 22.0 20.0 20.0 20.1 20.1 20.2 20.2 20.3 20.4 20.5 20.5 20.6 20.7 20.8 20.9 21.0 21.1 21.2 21.3 21.4 21.5 21.7 21.8 21.9 22.0 22.2 22.3 20.0 20.0 20.1 20.1 20.2 20.2 20.3 20.4 20.5 20.5 20.6 20.7 20.8 20.9 21.0 21.1 21.3 21.4 21.5 21.7 21.8 21.9 22.1 22.3 22.5 22.7 20.0 20.0 20.1 20.1 20.2 20.3 20.3 20.4 20.5 20.6 20.7 20.7 20.8 20.9 21.1 21.2 21.3 21.5 21.6 21.8 22.0 22.1 22.3 22.6 22.9 23.3 20.0 20.0 20.1 20.1 20.2 20.3 20.3 20.4 20.5 20.6 20.7 20.8 20.9 21.0 21.1 21.2 21.4 21.6 21.7 21.9 22.1 22.4 22.6 22.8 23.5 24.9 20.0 20.0 20.1 20.1 20.2 20.3 20.3 20.4 20.6 20.6 20.8 20.9 21.0 21.1 21.2 21.4 21.5 21.7 21.9 22.1 22.4 22.6 23.0 23.5 24.4 27.3 20.0 20.0 20.1 20.1 20.2 20.3 20.3 20.4 20.6 20.7 20.8 20.9 21.0 21.2 21.4 21.6 21.8 22.1 22.2 22.5 22.8 23.4 24.7 26.5 28.6 33.6 20.0 20.0 20.1 20.1 20.2 20.2 20.3 20.4 20.5 20.6 20.7 20.9 21.0 21.2 21.5 21.8 22.3 22.7 22.9 23.1 23.4 25.1 27.6 31.4 44.1 69.1 20.0 20.0 20.1 20.1 20.2 20.2 20.3 20.4 20.5 20.6 20.7 20.8 21.0 21.2 21.4 21.8 22.3 22.9 23.4 23.6 23.8 25.4 28.5 37.0 71.6 135.1 20.0 20.0 20.1 20.1 20.2 20.2 20.3 20.4 20.5 20.6 20.7 20.8 21.0 21.1 21.4 21.7 22.0 22.7 23.4 23.6 23.7 24.5 31.9 55.1 102.7 179.3 20.0 20.0 20.1 20.1 20.2 20.2 20.3 20.4 20.5 20.6 20.7 20.9 21.0 21.2 21.4 21.6 21.9 22.4 22.9 23.1 23.3 24.0 30.8 57.3 99.4 143.2 20.0 20.0 20.1 20.2 20.2 20.3 20.4 20.5 20.6 20.7 20.8 20.9 21.0 21.2 21.4 21.6 21.7 22.0 22.3 22.6 22.9 23.3 24.7 35.3 55.8 65.9 20.0 20.1 20.1 20.2 20.2 20.3 20.4 20.5 20.6 20.7 20.8 20.9 21.0 21.1 21.3 21.4 21.6 21.8 22.0 22.3 22.6 22.9 23.3 24.8 27.9 28.2 20.0 20.0 20.0 20.0 20.0 20.0 20.0 20.0 20.0 20.0 20.0 20.0 20.0 20.0 20.0 20.0 20.0 20.0 20.0 20.0 20.0 20.0 20.0 20.0 20.0 20.0 20.0 20.1 20.1 20.1 20.1 20.0 20.0 20.0 20.0 20.0 20.0 20.0 20.0 20.1 20.1 20.1 20.1 20.1 20.1 20.1 20.1 20.1 20.1 20.1 20.1 20.1 20.0 20.1 20.1 20.1 20.1 20.1 20.1 20.1 20.1 20.1 20.1 20.1 20.1 20.1 20.1 20.1 20.1 20.1 20.1 20.1 20.1 20.1 20.1 20.1 20.1 20.2 20.0 20.1 20.1 20.2 20.2 20.2 20.2 20.2 20.2 20.2 20.2 20.2 20.2 20.2 20.2 20.2 20.2 20.2 20.2 20.2 20.2 20.2 20.2 20.2 20.2 20.2 20.0 20.1 20.1 20.2 20.2 20.2 20.2 20.2 20.2 20.2 20.3 20.3 20.3 20.3 20.3 20.2 20.2 20.3 20.3 20.3 20.3 20.3 20.3 20.3 20.3 20.4 20.0 20.0 20.1 20.2 20.2 20.3 20.3 20.3 20.3 20.3 20.3 20.4 20.4 20.4 20.4 20.4 20.4 20.4 20.4 20.4 20.4 20.4 20.4 20.4 20.5 20.5 20.0 20.0 20.1 20.2 20.2 20.3 20.3 20.3 20.4 20.4 20.4 20.4 20.5 20.5 20.5 20.5 20.5 20.5 20.5 20.5 20.5 20.5 20.5 20.5 20.5 20.6 20.0 20.0 20.1 20.2 20.2 20.3 20.3 20.4 20.4 20.4 20.5 20.5 20.5 20.6 20.6 20.6 20.6 20.6 20.6 20.6 20.6 20.6 20.6 20.6 20.6 20.7 20.0 20.0 20.1 20.2 20.2 20.3 20.4 20.4 20.4 20.5 20.5 20.6 20.6 20.6 20.7 20.7 20.7 20.7 20.8 20.8 20.8 20.8 20.8 20.8 20.8 20.8 20.0 20.0 20.1 20.2 20.2 20.3 20.4 20.4 20.5 20.5 20.6 20.6 20.6 20.7 20.7 20.8 20.8 20.9 20.9 20.9 21.0 21.0 21.0 21.0 21.0 21.0 20.0 20.0 20.1 20.2 20.2 20.3 20.4 20.4 20.5 20.5 20.6 20.6 20.7 20.7 20.8 20.9 20.9 21.0 21.0 21.1 21.1 21.2 21.2 21.2 21.2 21.3 20.0 20.0 20.1 20.1 20.2 20.3 20.4 20.4 20.5 20.6 20.6 20.7 20.7 20.8 20.9 20.9 21.0 21.1 21.1 21.2 21.3 21.3 21.4 21.4 21.5 21.6 20.0 20.0 20.1 20.1 20.2 20.3 20.4 20.4 20.5 20.6 20.6 20.7 20.8 20.8 20.9 21.0 21.0 21.1 21.2 21.3 21.4 21.5 21.6 21.7 21.8 21.9 20.0 20.0 20.1 20.1 20.2 20.3 20.3 20.4 20.5 20.6 20.6 20.7 20.8 20.9 20.9 21.0 21.1 21.2 21.3 21.4 21.5 21.6 21.7 21.9 22.0 22.2 20.0 20.0 20.1 20.1 20.2 20.3 20.4 20.4 20.5 20.6 20.7 20.7 20.8 20.9 21.0 21.1 21.2 21.3 21.4 21.5 21.6 21.8 21.9 22.1 22.3 22.4 20.0 20.0 20.1 20.2 20.2 20.3 20.4 20.4 20.5 20.6 20.7 2