<?xml version="1.0"?>
<VTKFile type="PolyData" version="1.0" byte_order="LittleEndian" header_type="UInt64">
<PolyData>
<Piece NumberOfPoints="3" NumberOfVerts="0" NumberOfLines="0" NumberOfPolys="0">
    <Points>
        <DataArray type="Float32" NumberOfComponents="3" format="ascii">
        0.9960 2.0000 1.8000 5.0000 2.0000 1.8000 11.0060 9.2072 1.8000 
        </DataArray>
    </Points>
    <PointData>
        <DataArray type="Float32" Name="tag" format="ascii">
            5.0000 9.0000 13.0000 
         </DataArray>
        <DataArray type="Float32" Name="PARTICLE TEMPERATURE(C)" format="ascii">
            20.7853 21.7299 39.3459 
         </DataArray>
        <DataArray type="Float32" Name="PARTICLE DIAMETER(mu-m)" format="ascii">
            20000.0000 20000.0000 20000.0000 
         </DataArray>
        <DataArray type="Float32" Name="PARTICLE AGE(s)" format="ascii">
            40.0307 40.0307 40.0307 
         </DataArray>
    </PointData>
</Piece>
</PolyData>
</VTKFile>