<?xml version="1.0"?>
<VTKFile type="PolyData" version="1.0" byte_order="LittleEndian" header_type="UInt64">
<PolyData>
<Piece NumberOfPoints="149" NumberOfVerts="0" NumberOfLines="0" NumberOfPolys="0">
    <Points>
        <DataArray type="Float32" NumberOfComponents="3" format="ascii">
        14.9296 6.6984 6.1698 14.6712 7.9329 3.7602 14.1525 8.1827 4.4190 14.9200 7.2912 5.0933 14.3125 8.6419 4.0219 14.2402 8.6600 4.0853 14.6212 8.3578 4.2247 14.1018 8.4672 4.2878 14.3818 7.0912 4.5887 13.7305 7.8015 5.4351 12.1989 6.3249 6.7449 14.7595 7.0246 5.4964 13.3277 9.1988 4.1972 14.5211 3.2309 5.5384 13.9494 7.0151 5.2037 14.7002 9.8656 1.8139 14.4423 7.8161 4.0016 14.3524 6.4974 4.8205 14.1767 7.3892 6.0748 13.3891 6.4990 6.5660 14.4128 8.9841 5.3123 13.4837 6.3722 6.4645 14.4153 10.4014 3.5152 14.7834 10.1770 2.6595 13.9222 7.5524 6.1813 14.4329 8.4033 5.3888 14.4573 8.0925 4.9069 14.6019 9.5406 5.2387 14.3892 9.4780 5.5019 14.4770 10.4960 2.8094 14.5979 10.2657 5.0283 14.7663 10.4878 4.7919 14.3330 8.5267 5.2744 14.5104 7.9092 3.9487 14.6318 7.6827 4.3126 14.3986 8.9297 4.9999 14.3702 6.5956 5.8757 14.3793 8.7266 4.9920 14.6644 9.4745 3.6430 14.6279 9.5589 5.2799 14.0815 6.5724 5.6884 14.7605 8.4534 2.1678 14.7331 9.6647 5.0492 14.8687 10.4047 4.4674 14.5192 7.3017 4.2608 14.3869 6.5184 5.6266 14.6679 8.0248 4.2418 14.7747 9.9657 4.6024 14.7801 9.8811 4.6084 14.6372 9.3948 4.3389 12.5832 4.1217 7.2601 14.7206 7.0928 3.9880 14.8398 10.1284 4.1479 14.8257 10.4656 3.7567 14.0443 7.8313 5.4742 13.0387 3.7693 7.3832 12.9201 5.0939 6.7660 14.6438 7.0432 4.8850 14.3496 7.7284 5.1589 14.6239 7.8490 4.8516 14.2477 7.9239 5.5173 14.8726 8.8348 4.1608 14.3768 8.2136 5.4315 14.3104 8.0628 5.5166 14.5879 8.2694 5.0837 14.7230 6.8038 4.1173 14.6170 8.6304 4.9348 14.5712 6.6469 6.1946 14.8630 7.5980 5.7828 13.2944 6.3018 7.2263 14.4984 8.6357 6.0566 14.7593 6.5536 6.8709 12.4988 8.9708 7.3693 14.8667 7.9841 5.7154 13.0924 9.8438 6.8962 13.2930 8.4896 7.5450 13.6444 9.4450 7.0813 11.9415 7.3210 7.8760 13.8075 9.2332 6.8061 13.1746 9.9404 7.4239 14.1209 5.8258 6.6448 13.3460 7.9884 7.6214 13.2805 10.6894 7.0864 13.1373 7.7157 7.4695 13.5389 10.0875 7.1710 14.1900 9.2039 7.0251 14.8070 7.3617 6.3797 13.2739 10.2501 6.4865 11.9707 8.4831 7.6064 11.7599 10.0792 7.4773 14.5255 10.5157 4.0282 14.4877 9.9407 3.2216 11.9579 9.6628 7.5252 13.3796 10.4991 6.4137 13.3895 10.0482 6.2730 13.2889 9.5688 6.6494 13.6215 8.6532 7.0743 12.7865 10.1534 7.2575 13.8190 8.1493 7.2007 13.7519 10.4268 6.2183 13.7791 8.3938 7.1651 13.3745 9.5467 6.6936 13.8190 9.3971 6.0294 13.8826 7.4141 7.3508 13.6566 9.1119 6.7574 14.4479 8.6039 6.4819 14.2415 8.5048 6.9339 12.3547 6.5423 7.8318 13.8528 9.9850 6.2530 13.7502 9.5296 6.2223 12.7841 7.8821 7.4171 14.0018 7.3780 7.3925 13.0127 6.9334 7.5741 13.5971 6.2501 7.6577 11.6163 7.6129 7.9438 14.4138 9.1404 5.8765 14.8331 4.5531 6.9203 14.5110 9.1469 5.7556 13.7635 9.5259 6.8265 13.4082 5.5567 7.7979 13.9548 9.3798 6.5646 13.9241 9.1963 6.7143 12.3740 7.9789 7.6167 14.8796 9.0844 5.6942 13.8907 9.4464 6.5974 13.2018 7.9539 7.4826 14.0060 9.0519 6.9438 13.5165 8.6588 7.3895 14.2540 9.5286 5.9995 14.0510 8.2364 7.3089 14.3938 9.0821 6.1912 13.6753 5.3062 7.7444 14.6454 8.8761 6.1970 13.6287 4.9899 7.6292 13.7719 7.2064 7.5481 14.4028 9.0737 6.2967 13.9521 6.9805 7.5557 14.1648 9.1200 7.0342 14.7828 8.4921 6.4332 14.8435 9.1567 5.7267 13.8063 8.4063 7.4381 14.3663 8.1787 7.2103 14.9411 9.3055 5.3977 13.3098 4.0706 7.8427 14.6503 9.3418 5.9548 14.6456 8.5020 6.8898 14.5472 7.7025 6.9816 14.2826 8.0918 7.3321 14.5505 9.2193 6.5230 
        </DataArray>
    </Points>
    <PointData>
        <DataArray type="Float32" Name="tag" format="ascii">
            19307.0000 21911.0000 15139.0000 30607.0000 18383.0000 20847.0000 18851.0000 28435.0000 33571.0000 29691.0000 21271.0000 14587.0000 77379.0000 39535.0000 98559.0000 94755.0000 97267.0000 97911.0000 79995.0000 80015.0000 87707.0000 84131.0000 87007.0000 90251.0000 83247.0000 82583.0000 95439.0000 89335.0000 84467.0000 93035.0000 81067.0000 81147.0000 92131.0000 96599.0000 97043.0000 91423.0000 92939.0000 92919.0000 86103.0000 87995.0000 86623.0000 98071.0000 81939.0000 89763.0000 98111.0000 93455.0000 93683.0000 84223.0000 82459.0000 92023.0000 88435.0000 99923.0000 76475.0000 79439.0000 89155.0000 90599.0000 92787.0000 95467.0000 93607.0000 94843.0000 91279.0000 89787.0000 77883.0000 84863.0000 93471.0000 101819.0000 84967.0000 84695.0000 77663.0000 144403.0000 141215.0000 136783.0000 160427.0000 139315.0000 160103.0000 171079.0000 167843.0000 167711.0000 167635.0000 159383.0000 147207.0000 174479.0000 158219.0000 165831.0000 159167.0000 171279.0000 142447.0000 158299.0000 163851.0000 151143.0000 153523.0000 133807.0000 158659.0000 157131.0000 159087.0000 157879.0000 155991.0000 160523.0000 153147.0000 158987.0000 152283.0000 156507.0000 160043.0000 151567.0000 155583.0000 155039.0000 157419.0000 159447.0000 160747.0000 164523.0000 166163.0000 154447.0000 162731.0000 154219.0000 169823.0000 155871.0000 149179.0000 160759.0000 164431.0000 160843.0000 162587.0000 168415.0000 171367.0000 154535.0000 162051.0000 171795.0000 164587.0000 171507.0000 166107.0000 165731.0000 166051.0000 158847.0000 158755.0000 157291.0000 162183.0000 166075.0000 160667.0000 169935.0000 158139.0000 158763.0000 167647.0000 169999.0000 162483.0000 154095.0000 168335.0000 166183.0000 157543.0000 169595.0000 171031.0000 
         </DataArray>
    </PointData>
</Piece>
</PolyData>
</VTKFile>