<?xml version="1.0"?>
<VTKFile type="PolyData" version="1.0" byte_order="LittleEndian" header_type="UInt64">
<PolyData>
<Piece NumberOfPoints="4296" NumberOfVerts="0" NumberOfLines="0" NumberOfPolys="0">
    <Points>
        <DataArray type="Float32" NumberOfComponents="3" format="ascii">
        16.5701 6.0945 5.4142 16.2040 9.8445 2.1581 16.5879 12.0074 0.9736 15.3952 10.7267 6.1720 15.3616 8.6846 3.7489 15.4850 11.0082 1.2557 16.0570 11.6617 0.5431 15.6087 11.5133 1.0350 15.6580 9.1272 3.8695 15.3890 9.6437 1.6984 16.2678 10.4223 0.7718 17.0793 9.4075 0.5747 16.5896 2.2711 5.6004 15.2408 5.5638 2.3256 17.4332 6.0376 0.6552 20.2267 5.4356 3.6581 16.3962 8.6280 3.3185 16.4344 9.1841 2.6333 18.9318 10.5471 8.3940 19.0711 10.9053 8.3940 16.4421 9.0252 2.8467 17.4760 10.5859 0.7312 17.2591 8.8935 3.0173 18.7380 14.6022 8.3940 19.0593 14.6331 8.3940 19.0953 14.5056 8.3940 17.9015 9.9286 8.3940 16.5336 4.4853 5.0274 19.5227 13.0898 8.3940 18.7129 14.5335 8.3940 17.3862 8.0215 5.1761 18.2080 9.0677 3.1851 18.5910 8.0209 2.8776 17.8806 9.6757 8.3940 18.6678 7.5605 3.5416 19.6274 12.5597 8.3940 19.3955 14.1548 8.3940 15.1452 10.0061 8.3940 19.7024 12.4737 8.3940 19.6443 13.4301 8.3940 19.6479 13.4370 8.3940 19.4236 11.7337 8.3940 18.7616 10.4737 8.3940 20.0254 3.4606 5.0011 18.7379 10.0000 2.6056 19.1833 9.2385 4.8392 18.3548 10.2266 8.3940 16.7255 9.7533 8.3940 16.9219 9.6504 8.3940 18.1210 9.0176 4.8110 15.4175 10.0895 8.3940 19.2294 14.2291 8.3940 17.6327 7.1912 5.6985 15.3298 9.8916 3.1920 17.6716 9.6437 8.3940 15.5454 9.8216 8.3940 15.4200 9.8026 8.3940 19.2289 10.9875 8.3940 16.4486 9.5504 8.3940 18.6734 10.3283 8.3940 17.7070 9.7911 8.3940 18.6309 10.7478 8.3940 19.6813 12.4454 8.3940 17.8726 9.8327 8.3940 15.8536 9.9957 8.3940 19.1359 11.4087 8.3940 15.5713 9.5405 1.9721 15.5870 10.8339 0.8515 19.3059 13.1979 8.3940 16.1345 9.6043 8.3940 16.5590 9.6249 8.3940 19.0447 10.9610 8.3940 15.2323 10.6413 1.5643 19.0244 11.0138 8.3940 16.0212 9.9277 3.8053 15.3964 10.3925 1.4473 19.2650 13.7739 8.3940 19.5181 13.0275 8.3940 15.6026 10.1840 8.3940 17.5021 9.8752 8.3940 19.1084 11.2782 8.3940 18.8770 10.8580 8.3940 19.1146 10.3429 2.0925 16.5374 3.1126 3.8052 18.7345 10.5468 8.3940 19.5325 12.1078 8.3940 19.5011 12.8685 8.3940 18.4681 10.2708 8.3940 18.2119 14.7861 8.3940 15.1380 10.0145 1.6558 16.9100 10.0250 8.3940 17.2597 9.7049 8.3940 19.2007 12.4218 8.3940 18.9807 13.8385 8.3940 19.1612 13.4258 8.3940 15.2756 10.1269 1.6523 15.1506 10.4636 8.3940 19.2027 12.4113 8.3940 15.4354 10.2364 8.3940 15.3878 11.0241 1.0363 18.4776 14.3254 8.3940 19.0920 11.7309 8.3940 19.0188 14.1690 8.3940 17.9049 10.2817 8.3940 15.1903 8.4331 3.0068 18.7588 11.1646 8.3940 19.1510 11.4847 8.3940 16.5278 9.8581 8.3940 15.2560 10.4272 8.3940 19.1851 12.2940 8.3940 18.9250 13.9285 8.3940 15.1478 10.0510 8.3940 15.2916 10.0718 8.3940 15.3633 14.6603 8.3940 19.4037 12.6197 8.3940 19.4470 12.2259 8.3940 17.5689 9.9354 8.3940 17.5156 9.8989 8.3940 17.6652 10.2504 8.3940 19.0407 11.8122 8.3940 18.8450 10.9682 8.3940 15.1741 9.5885 1.0152 15.3234 14.6564 8.3940 19.1606 12.3142 8.3940 15.6502 9.9290 8.3940 18.8594 10.9193 8.3940 18.3375 14.2445 8.3940 18.9567 13.4050 8.3940 16.1818 9.8613 8.3940 15.4095 14.6199 8.3940 18.7109 14.2579 8.3940 18.5293 14.3088 8.3940 15.4899 14.7687 8.3940 15.1561 10.5259 8.3940 15.3636 14.6451 8.3940 19.1254 12.5492 8.3940 18.5511 10.9924 8.3940 19.3744 12.0455 8.3940 16.7467 9.9604 8.3940 19.2494 11.6274 8.3940 18.7579 14.3301 8.3940 19.0295 12.2592 8.3940 15.1737 10.2473 8.3940 19.1896 13.4662 8.3940 19.1572 12.3103 8.3940 16.8620 9.8130 8.3940 19.1827 13.6030 8.3940 19.0105 13.5217 8.3940 18.8748 11.3060 8.3940 16.0183 9.9469 8.3940 18.7248 13.9591 8.3940 19.1831 12.3194 8.3940 18.0396 10.4006 8.3940 18.1316 10.5002 8.3940 17.7604 14.6721 8.3940 15.9526 14.7917 8.3940 18.3255 14.6687 8.3940 18.9700 11.2302 8.3940 16.1959 3.8897 4.1461 16.7375 10.0997 8.3940 16.6860 8.7368 5.0017 19.0372 13.6893 8.3940 15.7785 10.3138 8.3940 18.8152 14.2037 8.3940 15.8529 14.7366 8.3940 18.2754 14.6906 8.3940 18.5822 10.5301 2.6249 15.8471 5.5352 6.1993 18.7830 11.1726 8.3940 18.7575 13.9420 8.3940 18.5587 11.0539 8.3940 16.6844 8.6135 3.1758 16.4599 10.2251 8.3940 17.5849 14.5622 8.3940 19.0130 12.9913 8.3940 18.9603 12.6222 8.3940 17.9100 10.5548 8.3940 17.4246 10.0074 0.8365 15.2488 10.2818 8.3940 18.9125 11.8499 8.3940 15.1443 14.4179 8.3940 15.8428 10.1729 8.3940 18.0102 10.5663 8.3940 18.9020 12.1272 8.3940 19.2357 12.5428 8.3940 18.8910 13.0756 8.3940 18.7790 13.7316 8.3940 18.5612 13.6636 8.3940 19.0305 12.3949 8.3940 19.0447 13.1379 8.3940 18.8546 13.3689 8.3940 18.6086 13.8908 8.3940 18.4454 14.1452 8.3940 16.7044 14.7466 8.3940 16.0127 10.2077 8.3940 16.2626 10.3142 8.3940 18.5026 14.4079 8.3940 19.0003 12.5080 8.3940 16.7357 10.1319 8.3940 18.5162 10.9217 8.3940 17.2791 9.6316 2.5760 15.1509 14.6396 8.3940 19.1148 11.8434 8.3940 19.1333 11.8084 8.3940 18.0821 10.4526 8.3940 15.3400 14.4836 8.3940 16.6218 14.7337 8.3940 17.4695 10.8974 1.0341 18.7727 11.3280 8.3940 18.4802 14.1436 8.3940 18.0851 10.4123 8.3940 17.3337 10.2428 8.3940 15.9741 10.1699 8.3940 18.8825 14.0579 8.3940 16.4170 4.5961 2.5610 18.3338 14.2428 8.3940 15.3187 10.5651 8.3940 18.6127 11.1493 8.3940 19.0106 11.3635 8.3940 17.0313 9.3227 2.1236 17.7140 10.0959 8.3940 15.3608 10.4669 8.3940 18.6197 11.1073 8.3940 19.2482 12.2621 8.3940 18.9996 11.6613 8.3940 18.6091 14.1483 8.3940 18.2453 10.8401 8.3940 19.0207 12.6309 8.3940 18.4953 10.9995 8.3940 19.2117 12.4328 8.3940 15.1814 10.7439 8.3940 15.5627 10.0863 8.3940 16.5624 10.2398 8.3940 17.7555 14.6492 8.3940 18.1338 14.6361 8.3940 18.9718 12.0511 8.3940 17.2824 9.5417 2.3319 17.3578 10.2246 8.3940 18.9656 12.3447 8.3940 17.2537 10.0207 8.3940 18.7246 13.6567 8.3940 18.2678 10.9608 8.3940 18.9834 12.3709 8.3940 17.0837 10.3666 1.5415 17.7561 14.7310 8.3940 18.0375 14.3301 8.3940 19.0048 11.8037 8.3940 15.4791 10.4207 8.3940 17.4517 10.4872 8.3940 18.8107 13.7554 8.3940 17.6740 14.4856 8.3940 15.6874 10.2696 8.3940 15.5706 10.5507 8.3940 17.5502 14.6455 8.3940 18.5885 14.0144 8.3940 18.5105 13.7738 8.3940 17.1497 9.0282 3.4143 17.1238 10.3041 8.3940 18.4558 10.9483 8.3940 18.0572 14.6405 8.3940 17.3707 10.0000 1.5651 15.8403 7.6903 5.4549 16.2870 6.9245 1.8411 17.1851 8.7634 2.8015 15.5338 8.8581 1.5304 18.4686 10.4542 2.7385 17.2575 7.6459 0.9919 17.3545 8.7529 4.6577 16.7367 6.6953 6.5321 19.0465 10.4115 2.1167 16.2440 8.9408 0.8416 15.7138 14.5474 8.3940 18.7890 10.3288 2.4181 16.8130 11.5512 4.3941 18.6765 10.7106 2.5306 18.3093 10.7836 8.3940 16.1937 7.3464 1.0153 18.3616 13.9908 8.3940 15.5986 9.6922 0.7084 18.2737 13.9660 8.3940 18.1998 10.0000 2.3267 15.2704 14.5676 8.3940 16.7642 14.6974 8.3940 18.2753 10.7236 8.3940 15.4581 9.9950 0.7082 15.4311 14.3539 8.3940 18.9424 12.7294 8.3940 17.6001 5.2218 4.5803 18.6015 10.3219 2.6056 15.8234 10.5541 8.3940 18.9180 12.2923 8.3940 17.4100 7.4297 1.8636 18.8169 13.4083 8.3940 17.9942 14.2445 8.3940 17.7141 9.8959 3.1693 15.1757 10.9392 8.3940 15.7991 10.2330 8.3940 18.1708 10.6137 8.3940 18.8309 13.4963 8.3940 16.2772 5.2633 4.1484 19.0045 12.5353 8.3940 15.3203 14.4140 8.3940 18.5291 11.4807 8.3940 18.3629 11.4175 8.3940 18.6229 13.8953 8.3940 17.2226 14.6936 8.3940 18.1771 13.9789 8.3940 17.0521 14.6790 8.3940 18.8292 11.4078 8.3940 19.1342 12.3310 8.3940 16.6709 8.5335 2.2969 15.3007 10.7042 0.9727 16.5346 10.2681 8.3940 17.8555 10.9491 8.3940 18.1641 10.9315 8.3940 18.8880 11.7181 8.3940 18.6445 13.4716 8.3940 17.0875 10.5315 8.3940 16.5587 10.2720 8.3940 18.4826 11.4266 8.3940 18.2095 13.9756 8.3940 16.7523 14.7197 8.3940 16.0179 10.4488 8.3940 18.3740 14.1534 8.3940 18.6096 11.8248 8.3940 17.5260 10.7295 8.3940 18.1068 14.5727 8.3940 18.8853 13.3286 8.3940 15.2501 10.7341 8.3940 16.5003 10.3089 8.3940 18.2176 13.9550 8.3940 16.8788 10.1792 8.3940 18.9420 12.7330 8.3940 17.2810 14.4858 8.3940 16.1485 10.5478 8.3940 18.7023 13.6370 8.3940 15.9237 10.3729 8.3940 18.8221 11.5343 8.3940 16.5722 10.5022 8.3940 18.2027 14.1360 8.3940 16.5414 10.4643 8.3940 18.0946 10.5991 8.3940 18.9933 12.5212 8.3940 15.9209 10.5612 8.3940 18.8431 13.2826 8.3940 17.4274 5.5446 3.3903 16.4100 14.7785 8.3940 18.2330 11.0158 8.3940 18.9160 13.5663 8.3940 16.0242 10.2018 8.3940 18.1770 11.0262 8.3940 18.6335 13.7560 8.3940 18.7083 11.6504 8.3940 18.2922 10.6430 8.3940 18.9029 12.3454 8.3940 17.5707 10.3748 8.3940 16.9179 10.2970 8.3940 16.9486 7.1725 2.3251 18.8991 13.0706 8.3940 16.0733 10.1970 8.3940 18.7177 12.0692 8.3940 19.0498 13.0346 8.3940 18.5414 14.1143 8.3940 17.4191 9.3523 2.5219 16.6814 10.2162 8.3940 17.3898 10.5040 8.3940 16.3617 10.0921 8.3940 16.3121 14.7383 8.3940 15.4629 14.5134 8.3940 17.7659 10.6983 8.3940 17.2705 10.4974 8.3940 18.6946 11.9574 8.3940 16.5526 10.4657 8.3940 18.3863 14.1244 8.3940 15.2087 10.6039 8.3940 17.7959 10.7858 8.3940 18.4627 13.8175 8.3940 15.2545 14.1299 8.3940 18.7625 11.9082 8.3940 18.6047 13.6199 8.3940 18.2917 14.3417 8.3940 15.3639 14.4701 8.3940 18.4839 13.8729 8.3940 18.7983 11.6367 8.3940 16.6986 10.1712 8.3940 16.8120 10.4682 8.3940 16.2124 10.3865 8.3940 18.6454 11.5983 8.3940 18.2830 14.0869 8.3940 18.3624 13.6138 8.3940 19.0303 12.9865 8.3940 15.8819 10.5807 8.3940 17.1458 10.3084 8.3940 15.7255 10.3833 8.3940 15.8001 5.0281 2.3933 18.9859 12.5661 8.3940 17.2507 14.5728 8.3940 18.7683 11.5443 8.3940 16.0178 10.4469 8.3940 18.6175 13.3682 8.3940 18.5469 13.6831 8.3940 19.0424 12.3213 8.3940 18.6848 10.5509 2.5223 18.5050 11.4312 8.3940 18.0418 10.9712 8.3940 16.6593 10.2155 8.3940 18.9306 12.5394 8.3940 15.2255 5.9590 5.7326 18.0779 14.4403 8.3940 18.8252 12.1216 8.3940 17.0680 14.5392 8.3940 17.0569 10.4081 8.3940 17.3548 14.7343 8.3940 16.4302 10.3132 8.3940 18.6314 12.8286 8.3940 15.3931 10.9439 8.3940 16.7429 14.7403 8.3940 16.9044 14.6390 8.3940 17.6016 10.4146 8.3940 18.5292 12.5590 8.3940 18.8248 12.3645 8.3940 18.6331 13.8212 8.3940 16.6195 14.5265 8.3940 18.4097 13.8858 8.3940 18.7114 12.6272 8.3940 18.
[...]
    <PointData>
        <DataArray type="Float32" Name="tag" format="ascii">
            8603.0000 10611.0000 12211.0000 12631.0000 14587.0000 15139.0000 18851.0000 28435.0000 30607.0000 33571.0000 33583.0000 35963.0000 39383.0000 39535.0000 41895.0000 66299.0000 47311.0000 48039.0000 48363.0000 50039.0000 50047.0000 50311.0000 50735.0000 53515.0000 53535.0000 53539.0000 55283.0000 56307.0000 57183.0000 58003.0000 58471.0000 59927.0000 60495.0000 60563.0000 62419.0000 62951.0000 63815.0000 63911.0000 63927.0000 64587.0000 65551.0000 66439.0000 66479.0000 66523.0000 66955.0000 72203.0000 67267.0000 69479.0000 69491.0000 69651.0000 70879.0000 70911.0000 72047.0000 72379.0000 73115.0000 74755.0000 74783.0000 74839.0000 75595.0000 75631.0000 75651.0000 75683.0000 75719.0000 77315.0000 77351.0000 77451.0000 77663.0000 77883.0000 79911.0000 79999.0000 80831.0000 81759.0000 82583.0000 83415.0000 84667.0000 84863.0000 85127.0000 85171.0000 85227.0000 85959.0000 86047.0000 86067.0000 99303.0000 102899.0000 86895.0000 86915.0000 86999.0000 87807.0000 88663.0000 89155.0000 89475.0000 90231.0000 90363.0000 90915.0000 90963.0000 91279.0000 91771.0000 91823.0000 91843.0000 92131.0000 92415.0000 93203.0000 93219.0000 93343.0000 93455.0000 93983.0000 94103.0000 94623.0000 94655.0000 95307.0000 95419.0000 96555.0000 96643.0000 96667.0000 97871.0000 97887.0000 97919.0000 97923.0000 97939.0000 98015.0000 98019.0000 98559.0000 99615.0000 100295.0000 100303.0000 100319.0000 100331.0000 100383.0000 101083.0000 101099.0000 101127.0000 101167.0000 101195.0000 101199.0000 101203.0000 101279.0000 101991.0000 102159.0000 102287.0000 102335.0000 103039.0000 103075.0000 103955.0000 104007.0000 104159.0000 104183.0000 104903.0000 104923.0000 104979.0000 105639.0000 105775.0000 106419.0000 106487.0000 106531.0000 106583.0000 106639.0000 106667.0000 106683.0000 106723.0000 120615.0000 116047.0000 119071.0000 112803.0000 111103.0000 111923.0000 111919.0000 118519.0000 107815.0000 120519.0000 123519.0000 124311.0000 118167.0000 115931.0000 124287.0000 119699.0000 114371.0000 120467.0000 111023.0000 113603.0000 110191.0000 118935.0000 123451.0000 112655.0000 117423.0000 119647.0000 116519.0000 121143.0000 124231.0000 119615.0000 114323.0000 118859.0000 112591.0000 112587.0000 122671.0000 115831.0000 118847.0000 114291.0000 118039.0000 126603.0000 118835.0000 109327.0000 121079.0000 118011.0000 122615.0000 125743.0000 120291.0000 125739.0000 124535.0000 107295.0000 107391.0000 107483.0000 108099.0000 108195.0000 108231.0000 108459.0000 109035.0000 109791.0000 109983.0000 110759.0000 110803.0000 110831.0000 110899.0000 110903.0000 111475.0000 111515.0000 111623.0000 111655.0000 113155.0000 113419.0000 113447.0000 113483.0000 114915.0000 114943.0000 115767.0000 116331.0000 117167.0000 117855.0000 118591.0000 120111.0000 120251.0000 121031.0000 121611.0000 121651.0000 121743.0000 122375.0000 122539.0000 123099.0000 123203.0000 123219.0000 123227.0000 123939.0000 124043.0000 124659.0000 124663.0000 124799.0000 124823.0000 125439.0000 125547.0000 126351.0000 126383.0000 126443.0000 126479.0000 140835.0000 136687.0000 142447.0000 136563.0000 135619.0000 130987.0000 130215.0000 136515.0000 137411.0000 135507.0000 131159.0000 127639.0000 146903.0000 129239.0000 137515.0000 129223.0000 145763.0000 130079.0000 131807.0000 129175.0000 134535.0000 140543.0000 136387.0000 129151.0000 129147.0000 130015.0000 132699.0000 128347.0000 128339.0000 135331.0000 136319.0000 134455.0000 132687.0000 129071.0000 134423.0000 134395.0000 141259.0000 137295.0000 143831.0000 140455.0000 146619.0000 146611.0000 129943.0000 132643.0000 143815.0000 129935.0000 135259.0000 131651.0000 129919.0000 141215.0000 130631.0000 145639.0000 139651.0000 142919.0000 145607.0000 146567.0000 140379.0000 131583.0000 142891.0000 130567.0000 143731.0000 129859.0000 145547.0000 142859.0000 134259.0000 132507.0000 128979.0000 142823.0000 135139.0000 139583.0000 146515.0000 145479.0000 140307.0000 145475.0000 142775.0000 127299.0000 141115.0000 140303.0000 136147.0000 136143.0000 142003.0000 136135.0000 144575.0000 133359.0000 144563.0000 144551.0000 127103.0000 127123.0000 128059.0000 128067.0000 128115.0000 128847.0000 129623.0000 129799.0000 130475.0000 131391.0000 131415.0000 132207.0000 132307.0000 132423.0000 132439.0000 133063.0000 133111.0000 133123.0000 133211.0000 133275.0000 133339.0000 134147.0000 134151.0000 134899.0000 134927.0000 134947.0000 134991.0000 135787.0000 135839.0000 135999.0000 136003.0000 136027.0000 136055.0000 136087.0000 136103.0000 136755.0000 136943.0000 137687.0000 137691.0000 137771.0000 137843.0000 137867.0000 137975.0000 138683.0000 138711.0000 138787.0000 138839.0000 139395.0000 139463.0000 139491.0000 140147.0000 140171.0000 140879.0000 140919.0000 140943.0000 141047.0000 141631.0000 141659.0000 141715.0000 141775.0000 141819.0000 141823.0000 141855.0000 141867.0000 141879.0000 142691.0000 143455.0000 143539.0000 143583.0000 143635.0000 143639.0000 144259.0000 144415.0000 144479.0000 144519.0000 145187.0000 145287.0000 145295.0000 146147.0000 146191.0000 146207.0000 146247.0000 146251.0000 146271.0000 147819.0000 150499.0000 148495.0000 151211.0000 148479.0000 152203.0000 155915.0000 149359.0000 149355.0000 151151.0000 155899.0000 151135.0000 152151.0000 158735.0000 158719.0000 171451.0000 150235.0000 150227.0000 151103.0000 160567.0000 160563.0000 152115.0000 154891.0000 156843.0000 150207.0000 153015.0000 157683.0000 160535.0000 147339.0000 148327.0000 164215.0000 158675.0000 149227.0000 154871.0000 152995.0000 152103.0000 158667.0000 160507.0000 152099.0000 160503.0000 154863.0000 162339.0000 160491.0000 147103.0000 147143.0000 147211.0000 147223.0000 147235.0000 147239.0000 147283.0000 147287.0000 147983.0000 148051.0000 148067.0000 148275.0000 148867.0000 148995.0000 149087.0000 149103.0000 149111.0000 149131.0000 149179.0000 149219.0000 149903.0000 149991.0000 150019.0000 150079.0000 150879.0000 150911.0000 150923.0000 150935.0000 150975.0000 150999.0000 151003.0000 151699.0000 151723.0000 151823.0000 151839.0000 151935.0000 151971.0000 151999.0000 152039.0000 152087.0000 152599.0000 152695.0000 152795.0000 152867.0000 152891.0000 152895.0000 152971.0000 152975.0000 153535.0000 153651.0000 153827.0000 153831.0000 153851.0000 153943.0000 153959.0000 154519.0000 154587.0000 154719.0000 154743.0000 154819.0000 155431.0000 155447.0000 155491.0000 155675.0000 155711.0000 156587.0000 156607.0000 156687.0000 156707.0000 156711.0000 156799.0000 157275.0000 157287.0000 157319.0000 157427.0000 157447.0000 157471.0000 157579.0000 158259.0000 158523.0000 158655.0000 159143.0000 159303.0000 159331.0000 159371.0000 159387.0000 159395.0000 159435.0000 159503.0000 159531.0000 159559.0000 160111.0000 160151.0000 160207.0000 160303.0000 160311.0000 160395.0000 160411.0000 160459.0000 161107.0000 161163.0000 161195.0000 161211.0000 161219.0000 161387.0000 161439.0000 162987.0000 163031.0000 163051.0000 163147.0000 163203.0000 163315.0000 163331.0000 163395.0000 163787.0000 163875.0000 164127.0000 164767.0000 164939.0000 165067.0000 165099.0000 165167.0000 165299.0000 165771.0000 166679.0000 166791.0000 166859.0000 166903.0000 167059.0000 167727.0000 167803.0000 168935.0000 170199.0000 170207.0000 170211.0000 170227.0000 170383.0000 170527.0000 170571.0000 171811.0000 171823.0000 171967.0000 171983.0000 172083.0000 172103.0000 172107.0000 172111.0000 172115.0000 172163.0000 172639.0000 172711.0000 172855.0000 213711.0000 205907.0000 201727.0000 207371.0000 202899.0000 203159.0000 201707.0000 174915.0000 204655.0000 204651.0000 192487.0000 204291.0000 208763.0000 206099.0000 210279.0000 213335.0000 211987.0000 210219.0000 183019.0000 204223.0000 204531.0000 192743.0000 196879.0000 183003.0000 186195.0000 201627.0000 203075.0000 174731.0000 197155.0000 200131.0000 195227.0000 198235.0000 193719.0000 201107.0000 181263.0000 208547.0000 205627.0000 208539.0000 173587.0000 173703.0000 173907.0000 175163.0000 175171.0000 175251.0000 175259.0000 175351.0000 175407.0000 175455.0000 213507.0000 176035.0000 176787.0000 176947.0000 177095.0000 178423.0000 178743.0000 179495.0000 180083.0000 180247.0000 180287.0000 180295.0000 180339.0000 180455.0000 180883.0000 180931.0000 181819.0000 183371.0000 183383.0000 183435.0000 183627.0000 183687.0000 183783.0000 185003.0000 185047.0000 185303.0000 185351.0000 185375.0000 185483.0000 187079.0000 187471.0000 187539.0000 187563.0000 188391.0000 188527.0000 188583.0000 188643.0000 188819.0000 189115.0000 189299.0000 189935.0000 189967.0000 190083.0000 190267.0000 190291.0000 190355.0000 190359.0000 191415.0000 191487.0000 191523.0000 191579.0000 191771.0000 191807.0000 191935.0000 191955.0000 193007.0000 193043.0000 193091.0000 193147.0000 193155.0000 193263.0000 193271.0000 193275.0000 193339.0000 193371.0000 193399.0000 193403.0000 194395.0000 194747.0000 194831.0000 194871.0000 195083.0000 195859.0000 195887.0000 195919.0000 196071.0000 196263.0000 196363.0000 197447.0000 197491.0000 197591.0000 197687.0000 197931.0000 197947.0000 198991.0000 199051.0000 199083.0000 199227.0000 199395.0000 200303.0000 200451.0000 200519.0000 200547.0000 200635.0000 200643.0000 201771.0000 201823.0000 202055.0000 202111.0000 202163.0000 202219.0000 202283.0000 203267.0000 203371.0000 203479.0000 203495.0000 203611.0000 203879.0000 204867.0000 204887.0000 204895.0000 204927.0000 204983.0000 205391.0000 205407.0000 206419.0000 206503.0000 206603.0000 206643.0000 206651.0000 206655.0000 207767.0000 207811.0000 207895.0000 207959.0000 207971.0000 208159.0000 209291.0000 209367.0000 209415.0000 209483.0000 209519.0000 209539.0000 209543.0000 209551.0000 209595.0000 210023.0000 210027.0000 210671.0000 210683.0000 210735.0000 210739.0000 210815.0000 210827.0000 211027.0000 211439.0000 212251.0000 212363.0000 212367.0000 212387.0000 212399.0000 212419.0000 212439.0000 212455.0000 212519.0000 212567.0000 222627.0000 236031.0000 222559.0000 247639.0000 240251.0000 247631.0000 236003.0000 238807.0000 243011.0000 232643.0000 232631.0000 239859.0000 252211.0000 232587.0000 249455.0000 250595.0000 235695.0000 234275.0000 241367.0000 232911.0000 249431.0000 238455.0000 221055.0000 226639.0000 234511.0000 239707.0000 232863.0000 249375.0000 247303.0000 235579.0000 241199.0000 235871.0000 235863.0000 246319.0000 232775.0000 243083.0000 250871.0000 238595.0000 249179.0000 213811.0000 213843.0000 214171.0000 214175.0000 214211.0000 215391.0000 215499.0000 215627.0000 216887.0000 216943.0000 216999.0000 217011.0000 217147.0000 217187.0000 218559.0000 219739.0000 219947.0000 219995.0000 220123.0000 220151.0000 220219.0000 221367.0000 221443.0000 221527.0000 221647.0000 222971.0000 223047.0000 223159.0000 224103.0000 224163.0000 224359.0000 224447.0000 224459.0000 225551.0000 225591.0000 225631.0000 225771.0000 225823.0000 225847.0000 225899.0000 225939.0000 226039.0000 226979.0000 227119.0000 227183.0000 227195.0000 227203.0000 227247.0000 227303.0000 228455.0000 228471.0000 228499.0000 228527.0000 228595.0000 228979.0000 229083.0000 229887.0000 229967.0000 230195.0000 230211.0000 230247.0000 230283.0000 230303.0000 230947.0000 231487.0000 231495.0000 231571.0000 231671.0000 231687.0000 231695.0000 231807.0000 233055.0000 233063.0000 233163.0000 233247.0000 233291.0000 233379.0000 233387.0000 233551.0000 233587.0000 234727.0000 234803.0000 234879.0000 234947.0000 234975.0000 235263.0000 236095.0000 236215.0000 236267.0000 236391.0000 237771.0000 237807.0000 237843.0000 238875.0000 238903.0000 238951.0000 238999.0000 239051.0000 239119.0000 239187.0000 239199.0000 240307.0000 240459.0000 240551.0000 240555.0000 240667.0000 240703.0000 241091.0000 241823.0000 241859.0000 241883.0000 241955.0000 242047.0000 242099.0000 242131.0000 242227.0000 242531.0000 242707.0000 243531.0000 243675.0000 243719.0000 244927.0000 244959.0000 245227.0000 245815.0000 245819.0000 246463.0000 246615.0000 246647.0000 246703.0000 246747.0000 246763.0000 247255.0000 248067.0000 248139.0000 248203.0000 248351.0000 248439.0000 248551.0000 249607.0000 249643.0000 249755.0000 249979.0000 251191.0000 251327.0000 251391.0000 251875.0000 264063.0000 262367.0000 278867.0000 278847.0000 267099.0000 276455.0000 282007.0000 284463.0000 265159.0000 274555.0000 283899.0000 281991.0000 267067.0000 258539.0000 261871.0000 267059.0000 281979.0000 256743.0000 258915.0000 269459.0000 265703.0000 291223.0000 256723.0000 272683.0000 274499.0000 278223.0000 253723.0000 265059.0000 257187.0000 288135.0000 287463.0000 263487.0000 265019.0000 278183.0000 275015.0000 265643.0000 274435.0000 283743.0000 285559.0000 258443.0000 276883.0000 291879.0000 274999.0000 269419.0000 254111.0000 260183.0000 288083.0000 283719.0000 282487.0000 291103.0000 273107.0000 266935.0000 256615.0000 263923.0000 261627.0000 284327.0000 268799.0000 253603.0000 274355.0000 263355.0000 287303.0000 291051.0000 278759.0000 270619.0000 260127.0000 268683.0000 291003.0000 279963.0000 258363.0000 263867.0000 256515.0000 271183.0000 276163.0000 269363.0000 287211.0000 261547.0000 263863.0000 279923.0000 261535.0000 285367.0000 274919.0000 272443.0000 289047.0000 254031.0000 254027.0000 273023.0000 291727.0000 269315.0000 260515.0000 262163.0000 253955.0000 269255.0000 258703.0000 287971.0000 269227.0000 274859.0000 269191.0000 260395.0000 274847.0000 267283.0000 278611.0000 272927.0000 258611.0000 290919.0000 291659.0000 269151.0000 286015.0000 274767.0000 274763.0000 276631.0000 287115.0000 284135.0000 287931.0000 278523.0000 289803.0000 280371.0000 278491.0000 276547.0000 276535.0000 280331.0000 278455.0000 280323.0000 276503.0000 280287.0000 291575.0000 282051.0000 272787.0000 289627.0000 283939.0000 287727.0000 289531.0000 252667.0000 252687.0000 252987.0000 254299.0000 254455.0000 254547.0000 254563.0000 254599.0000 255783.0000 255835.0000 255851.0000 255863.0000 255903.0000 255927.0000 255999.0000 256095.0000 256199.0000 256355.0000 256431.0000 257367.0000 257491.0000 257551.0000 257559.0000 257843.0000 258179.0000 259003.0000 259163.0000 259235.0000 259263.0000 259347.0000 260015.0000 260751.0000 260835.0000 260851.0000 260899.0000 261003.0000 261351.0000 262383.0000 262571.0000 262627.0000 262823.0000 262847.0000 262915.0000 262947.0000 262979.0000 263083.0000 264163.0000 264255.0000 264343.0000 264363.0000 264395.0000 264411.0000 264535.0000 264539.0000 265783.0000 265787.0000 265823.0000 265871.0000 266099.0000 266251.0000 266331.0000 266375.0000 266403.0000 266703.0000 266735.0000 267659.0000 267667.0000 267851.0000 267927.0000 268003.0000 268103.0000 268235.0000 268243.0000 269619.0000 269791.0000 269835.0000 269927.0000 270007.0000 270055.0000 270099.0000 270151.0000 270195.0000 270247.0000 270491.0000 271567.0000 271671.0000 271799.0000 271931.0000 271963.0000 271995.0000 273271.0000 273383.0000 273407.0000 273443.0000 273447.0000 273603.0000 273643.0000 273835.0000 273867.0000 273919.0000 275259.0000 275267.0000 275395.0000 275431.0000 275539.0000 275571.0000 275687.0000 275903.0000 275995.0000 277051.0000 277223.0000 277331.0000 277371.0000 277767.0000 277787.0000 278947.0000 278959.0000 279155.0000 279179.0000 279183.0000 279243.0000 279327.0000 279335.0000 279467.0000 279487.0000 279591.0000 279759.0000 280779.0000 281011.0000 281123.0000 281379.0000 281475.0000 282827.0000 282951.0000 283155.0000 283195.0000 283359.0000 284539.0000 284691.0000 284703.0000 284755.0000 284859.0000 284883.0000 284947.0000 285043.0000 285059.0000 285287.0000 286375.0000 286391.0000 286683.0000 286807.0000 286823.0000 287047.0000 288271.0000 288403.0000 288523.0000 288563.0000 288587.0000 288659.0000 288663.0000 288887.0000 290247.0000 290283.0000 290383.0000 290627.0000 290643.0000 290663.0000 290899.0000 331803.0000 306939.0000 305055.0000 304423.0000 302503.0000 325963.0000 318739.0000 295043.0000 310459.0000 304403.0000 308799.0000 320183.0000 318711.0000 296919.0000 326863.0000 330319.0000 325431.0000 332707.0000 332703.0000 329775.0000 321615.0000 326843.0000 319715.0000 331759.0000 332691.0000 326827.0000 332687.0000 323067.0000 299391.0000 321019.0000 331159.0000 325403.0000 316459.0000 298707.0000 329735.0000 332671.0000 295607.0000 329703.0000 332651.0000 308251.0000 309807.0000 311475.0000 326787.0000 293083.0000 326779.0000 330255.0000 332639.0000 298599.0000 303071.0000 313035.0000 332603.0000 302351.0000 308203.0000 313711.0000 296739.0000 331083.0000 303043.0000 296731.0000 298567.0000 320107.0000 331063.0000 321539.0000 306015.0000 321535.0000 329607.0000 308151.0000 308147.0000 310391.0000 328255.0000 322491.0000 299315.0000 305991.0000 303011.0000 316327.0000 305975.0000 328239.0000 314775.0000 304155.0000 316299.0000 305955.0000 325879.0000 294755.0000 321515.0000 309727.0000 300387.0000 329547.0000 329539.0000 325211.0000 295519.0000 320087.0000 310355.0000 312943.0000 294731.0000 329515.0000 304115.0000 296611.0000 323007.0000 296595.0000 320871.0000 296567.0000 294699.0000 318015.0000 304823.0000 333111.0000 308035.0000 294679.0000 311323.0000 330155.0000 300283.0000 331639.0000 319499.0000 322423.0000 327315.0000 305883.0000 315231.0000 325127.0000 297351.0000 330923.0000 305871.0000 316927.0000 295459.0000 325115.0000 320815.0000 327287.0000 305851.0000 330135.0000 324347.0000 328163.0000 325103.0000 329427.0000 292783.0000 294603.0000 301103.0000 311947.0000 325795.0000 306659.0000 311255.0000 302119.0000 299179.0000 331615.0000 299167.0000 308675.0000 304751.0000 328155.0000 302887.0000 312839.0000 310251.0000 302867.0000 293511.0000 293507.0000 325779.0000 295311.0000 302859.0000 310235.0000 307955.0000 321407.0000 302851.0000 308631.0000 328663.0000 322895.0000 322379.0000 312827.0000 323751.0000 313539.0000 293443.0000 302787.0000 293411.0000 299075.0000 333023.0000 306547.0000 308611.0000 308603.0000 321363.0000 302747.0000 328135.0000 323743.0000 318447.0000 323735.0000 332975.0000 295119.0000 306475.0000 295115.0000 304579.0000 308547.0000 310123.0000 304563.0000 311803.0000 319991.0000 295059.0000 300723.0000 313387.0000 313379.0000 302579.0000 310047.0000 316671.0000 321287.0000 324215.0000 313303.0000 313295.0000 309971.0000 315051.0000 325655.0000 321271.0000 315031.0000 309943.0000 319919.0000 315027.0000 316627.0000 319887.0000 321215.0000 328539.0000 318323.0000 328515.0000 329939.0000 325603.0000 321167.0000 322703.0000 332875.0000 328475.0000 325559.0000 332867.0000 324091.0000 328427.0000 331323.0000 329815.0000 331243.0000 332719.0000 292011.0000 292159.0000 292443.0000 292447.0000 292567.0000 292615.0000 292715.0000 293895.0000 294143.0000 294147.0000 294195.0000 294259.0000 294335.0000 294383.0000 295799.0000 296163.0000 296219.0000 296239.0000 296331.0000 296371.0000 296447.0000 297987.0000 298031.0000 298067.0000 298075.0000 298191.0000 298231.0000 298275.0000 299895.0000 299919.0000 299975.0000 300043.0000 300051.0000 300199.0000 300211.0000 301667.0000 301747.0000 301807.0000 303239.0000 303251.0000 303291.0000 303375.0000 303447.0000 303463.0000 303495.0000 303651.0000 303915.0000 305383.0000 305467.0000 305479.0000 305543.0000 305659.0000 305679.0000 305807.0000 307111.0000 307171.0000 307207.0000 307299.0000 307411.0000 307535.0000 307651.0000 307675.0000 307755.0000 307787.0000 307803.0000 308915.0000 308927.0000 308967.0000 309115.0000 309215.0000 309243.0000 309279.0000 309427.0000 309511.0000 309523.0000 309575.0000 310803.0000 310835.0000 311119.0000 311123.0000 311127.0000 311171.0000 311179.0000 312319.0000 312359.0000 312467.0000 312591.0000 312775.0000 314167.0000 314483.0000 314503.0000 315479.0000 315503.0000 315759.0000 315891.0000 315959.0000 316107.0000 316127.0000 317119.0000 317155.0000 317283.0000 317295.0000 317379.0000 317383.0000 317455.0000 317539.0000 317543.0000 317663.0000 317687.0000 317735.0000 317787.0000 317863.0000 318871.0000 319055.0000 319103.0000 319199.0000 319259.0000 320675.0000 321743.0000 321919.0000 321987.0000 322067.0000 322207.0000 323123.0000 323315.0000 323451.0000 3235