<?xml version="1.0"?>
<VTKFile type="PolyData" version="1.0" byte_order="LittleEndian" header_type="UInt64">
<PolyData>
<Piece NumberOfPoints="107" NumberOfVerts="0" NumberOfLines="0" NumberOfPolys="0">
    <Points>
        <DataArray type="Float32" NumberOfComponents="3" format="ascii">
        14.8259 6.6273 6.2156 14.5187 7.5173 4.8275 14.5620 8.3986 3.2871 14.5814 8.5046 3.9749 13.8173 7.8143 5.2604 14.7183 6.9398 5.6262 14.0016 8.2832 4.9568 13.9381 8.3232 4.9844 14.6311 8.8599 2.8973 14.2870 7.9619 5.1778 13.7905 8.1091 5.1493 14.1794 6.6968 5.4214 14.7302 6.8351 5.3523 11.0341 4.0048 7.2387 13.4991 7.6348 5.9276 12.6498 6.6974 7.0246 14.5774 6.8259 6.0710 13.0631 8.9984 5.8848 14.5034 3.1436 6.4317 14.2777 10.0567 4.1896 13.7443 6.8408 6.3634 14.6259 7.5056 4.6998 14.6535 7.8147 4.5898 14.5266 9.3421 4.3178 14.2235 7.4442 5.6176 14.1342 6.3067 6.2482 13.4073 9.8246 4.4626 13.9697 7.2039 6.5265 13.4504 6.6995 7.0825 14.1489 8.8334 6.2156 13.5478 6.5796 7.0791 14.3771 10.0366 4.9169 14.4974 9.7069 4.7408 13.6339 7.3795 6.6210 14.2265 8.3542 6.2670 14.1036 7.8422 6.0214 14.2703 9.3852 6.2262 14.1562 9.3562 6.4886 14.6825 9.4263 4.0661 14.4755 10.0470 4.6699 14.3781 9.8481 6.0433 14.2411 10.1967 5.8128 14.1199 8.4357 6.2398 14.2842 7.5242 5.5416 14.4361 7.3272 5.6561 14.1955 8.7458 6.0779 14.2624 6.5391 6.5923 14.1904 8.5697 6.0975 14.3616 10.2266 5.6036 14.5986 9.1713 5.1038 14.3256 9.4102 6.2704 14.7056 9.3167 3.0489 13.9447 6.5726 6.6407 14.8982 7.3933 5.2821 14.5223 7.8754 4.6515 14.4165 9.4475 6.0806 14.5021 9.9152 5.4677 14.3493 6.9520 5.7238 14.8305 7.3063 5.7310 14.7524 7.7502 5.2766 14.6010 9.4416 5.3250 14.2540 6.4676 6.5872 14.4034 7.6850 5.7905 14.6617 7.4396 5.4448 14.6580 9.7915 4.7237 14.8794 7.0935 5.6825 14.4847 9.5856 5.8217 14.4751 9.5389 5.8461 14.9782 10.6722 4.8782 14.4326 9.1378 5.5971 13.2693 5.5198 7.8717 14.5462 9.0153 3.7067 14.9515 10.6079 4.0155 14.8544 7.1309 5.3361 14.5158 6.6836 5.7298 14.6271 9.6426 5.4797 14.5973 10.2073 4.9526 13.7820 7.6464 6.3831 13.6159 5.4303 7.8265 14.9992 10.6381 3.7547 14.8064 9.6953 4.9777 14.6024 9.4993 5.6194 13.4839 5.7670 7.7233 14.4791 6.7714 6.2146 14.8916 7.3423 5.1332 14.0755 7.4903 6.2547 13.6265 4.6471 7.8037 14.8069 9.5194 2.6473 14.3517 7.5631 6.1259 14.0024 7.7504 6.3923 14.3234 2.6008 7.7280 14.9100 9.0507 5.2515 14.9009 9.5311 3.5678 14.9536 9.6680 3.3588 14.6582 8.5543 5.7482 14.7741 3.6693 7.2332 14.6434 7.3081 5.0224 14.8255 9.2861 4.2957 14.8269 9.4827 5.1162 14.1534 8.1121 6.3829 14.0741 7.9163 6.4008 14.3088 8.1121 6.2441 14.5262 6.4562 6.0958 14.8636 9.6134 5.1446 14.7707 9.1865 4.6200 14.4365 8.4752 6.2049 14.5082 6.6117 6.8946 
        </DataArray>
    </Points>
    <PointData>
        <DataArray type="Float32" Name="tag" format="ascii">
            19307.0000 21911.0000 29411.0000 21751.0000 15139.0000 30607.0000 18383.0000 20847.0000 26923.0000 18851.0000 28435.0000 33571.0000 33583.0000 25915.0000 29691.0000 21271.0000 14587.0000 77379.0000 39535.0000 79331.0000 98559.0000 98595.0000 98871.0000 94755.0000 97267.0000 97911.0000 83411.0000 79995.0000 80015.0000 87707.0000 84131.0000 87007.0000 90251.0000 83247.0000 82583.0000 95439.0000 89335.0000 84467.0000 91747.0000 93035.0000 81067.0000 81147.0000 92131.0000 96599.0000 97043.0000 91423.0000 92939.0000 92919.0000 85379.0000 86103.0000 87995.0000 93879.0000 86623.0000 94071.0000 98071.0000 81939.0000 89763.0000 98111.0000 89511.0000 91723.0000 91979.0000 93455.0000 93683.0000 97051.0000 92615.0000 94087.0000 84223.0000 82459.0000 80435.0000 92023.0000 88435.0000 97011.0000 91931.0000 96703.0000 99923.0000 76475.0000 79439.0000 89155.0000 90599.0000 84947.0000 80799.0000 85919.0000 92787.0000 95467.0000 98371.0000 93607.0000 87431.0000 96835.0000 94843.0000 91279.0000 101243.0000 91307.0000 97571.0000 97555.0000 89787.0000 12283.0000 100971.0000 97023.0000 94547.0000 77883.0000 84863.0000 93471.0000 101819.0000 86035.0000 81447.0000 84967.0000 84695.0000 
         </DataArray>
    </PointData>
</Piece>
</PolyData>
</VTKFile>