<?xml version="1.0"?>
<VTKFile type="PolyData" version="1.0" byte_order="LittleEndian" header_type="UInt64">
<PolyData>
<Piece NumberOfPoints="94" NumberOfVerts="0" NumberOfLines="0" NumberOfPolys="0">
    <Points>
        <DataArray type="Float32" NumberOfComponents="3" format="ascii">
        14.8544 6.8493 6.4812 14.4292 7.3504 5.4213 14.4302 8.0836 4.1749 14.4606 8.2755 4.7455 13.7566 7.7560 5.7396 14.7020 6.9723 5.9579 13.8642 8.1660 5.5157 13.8023 8.2107 5.5351 14.7831 8.8589 3.8315 14.5289 8.5015 3.9224 14.1962 7.9077 5.7034 13.7092 8.0326 5.6784 14.1548 6.7188 5.8828 14.6959 6.8128 5.8983 11.2001 4.0484 7.5418 13.4208 7.5694 6.2795 12.8476 7.0964 6.8894 14.6378 6.9865 6.5714 13.1666 9.1363 6.8492 14.5165 2.8900 6.8598 14.2552 9.9810 6.4507 13.8374 7.3101 6.9678 14.5867 7.4423 5.9223 14.6102 7.7437 5.9881 14.3311 9.1182 5.5669 14.2573 7.4532 6.4826 14.1923 6.6993 6.9037 13.2752 9.8250 6.3018 14.1678 7.6466 7.0675 14.0394 7.3635 7.2841 14.1908 8.6288 6.7034 14.1523 7.2580 7.2913 14.3591 9.7971 5.9342 14.3181 9.5093 5.8454 13.9730 7.8992 7.1903 14.3036 8.2945 6.7669 14.1559 7.8010 6.6803 14.1975 9.2206 6.7623 14.0196 9.2647 6.8761 14.5323 9.1670 5.3468 14.3983 9.7690 5.7810 14.3771 9.7698 6.8124 14.1693 10.0479 6.7007 14.1850 8.3331 6.7853 14.3085 7.5136 6.3930 14.4825 7.3639 6.4019 14.2511 8.5746 6.6847 14.3872 7.0273 7.0503 14.2498 8.4361 6.7063 14.3171 10.0437 6.5749 14.4671 9.0209 6.0796 14.2274 9.2766 6.8085 14.6359 9.0529 4.7148 14.2254 7.2517 7.1997 14.9002 7.4119 6.1182 14.4499 7.7846 5.8888 14.3704 9.3358 6.7526 14.5951 9.7541 6.3124 14.4174 7.0526 6.5408 14.8675 7.3978 6.4958 14.7670 7.7565 6.2371 14.4612 9.3007 6.2959 14.4292 6.9700 7.1203 14.4824 7.7467 6.6396 14.6911 7.4983 6.3934 14.5208 9.5164 5.8406 14.9037 7.1932 6.4461 14.5018 9.5075 6.6522 14.4765 9.4536 6.6690 13.3059 4.5438 7.6543 14.6625 10.1413 5.7396 14.4170 8.9896 6.4925 14.0984 6.7903 7.5824 14.4808 8.8276 5.3744 14.6827 10.0834 5.1051 14.8592 7.1876 6.2761 14.8694 4.0342 6.3764 14.9361 10.1955 4.7546 14.5585 6.8364 6.6881 14.6490 9.9146 4.6965 14.6147 9.5284 6.3834 14.6054 9.8655 5.9345 14.0000 7.9648 7.0917 14.3083 6.4777 7.5334 14.7644 10.1033 5.0944 14.8556 10.1417 5.2868 14.6848 9.4177 5.9796 14.5756 9.4127 6.5553 14.2383 6.7217 7.5674 14.5698 7.0557 7.0557 14.8991 7.3845 6.3187 14.2402 7.7523 7.0246 14.2943 5.9732 7.6418 14.7395 9.2455 4.8189 
        </DataArray>
    </Points>
    <PointData>
        <DataArray type="Float32" Name="tag" format="ascii">
            19307.0000 21911.0000 29411.0000 21751.0000 15139.0000 30607.0000 18383.0000 20847.0000 26219.0000 26923.0000 18851.0000 28435.0000 33571.0000 33583.0000 25915.0000 29691.0000 21271.0000 14587.0000 77379.0000 39535.0000 79331.0000 98559.0000 98595.0000 98871.0000 94755.0000 97267.0000 97911.0000 83411.0000 79995.0000 80015.0000 87707.0000 84131.0000 87007.0000 90251.0000 83247.0000 82583.0000 95439.0000 89335.0000 84467.0000 91747.0000 93035.0000 81067.0000 81147.0000 92131.0000 96599.0000 97043.0000 91423.0000 92939.0000 92919.0000 85379.0000 86103.0000 87995.0000 93879.0000 86623.0000 94071.0000 98071.0000 81939.0000 89763.0000 98111.0000 89511.0000 91723.0000 91979.0000 93455.0000 93683.0000 97051.0000 92615.0000 94087.0000 84223.0000 82459.0000 100115.0000 80435.0000 92023.0000 88435.0000 97011.0000 91931.0000 96703.0000 39655.0000 87819.0000 99923.0000 94931.0000 76475.0000 79439.0000 89155.0000 90599.0000 84947.0000 90727.0000 80799.0000 85919.0000 92787.0000 95467.0000 98371.0000 93607.0000 87431.0000 96835.0000 
         </DataArray>
    </PointData>
</Piece>
</PolyData>
</VTKFile>