<?xml version="1.0"?>
<VTKFile type="RectilinearGrid" version="1.0" byte_order="LittleEndian" header_type="UInt64">
<RectilinearGrid WholeExtent="0 25 0 25 0 15">
<Piece Extent="0 25 0 25 0 15">
<Coordinates>
<DataArray type="Float64" Name="Array X-Axis" format="ascii" RangeMin="0.0" RangeMax="15.0">
0.0 0.6 1.2 1.8 2.4 3.0 3.6 4.2 4.8 5.4 6.0 6.6 7.2 7.8 8.4 9.0 9.6 10.2 10.8 11.4 12.0 12.6 13.2 13.8 14.4 15.0 
</DataArray>
<DataArray type="Float64" Name="Array Y-Axis" format="ascii" RangeMin="0.0" RangeMax="15.0">
0.0 0.6 1.2 1.8 2.4 3.0 3.6 4.2 4.8 5.4 6.0 6.6 7.2 7.8 8.4 9.0 9.6 10.2 10.8 11.4 12.0 12.6 13.2 13.8 14.4 15.0 
</DataArray>
<DataArray type="Float64" Name="Array Z-Axis" format="ascii" RangeMin="0.0" RangeMax="9.0">
0.0 0.6 1.2 1.8 2.4 3.0 3.6 4.2 4.8 5.4 6.0 6.6 7.2 7.8 8.4 9.0 
</DataArray>
</Coordinates>
<PointData>
<DataArray Name="TEMPERATURE" NumberOfComponents="1" type="Float64" format="ascii">
20.0 20.0 20.0 20.0 20.0 20.0 20.0 20.0 20.0 20.0 20.0 20.0 20.0 20.0 20.0 20.0 20.0 20.0 20.0 20.0 20.0 20.0 20.0 20.0 20.0 20.0 20.0 20.0 20.0 20.0 20.0 20.0 20.0 20.0 20.0 20.0 20.0 20.0 20.0 20.0 20.0 20.0 20.0 20.0 20.0 20.0 20.0 20.0 20.1 20.1 20.1 20.1 20.0 20.0 20.1 20.1 20.1 20.1 20.1 20.1 20.1 20.1 20.1 20.1 20.1 20.1 20.1 20.1 20.1 20.1 20.1 20.1 20.1 20.1 20.1 20.1 20.1 20.1 20.0 20.0 20.1 20.1 20.1 20.1 20.1 20.1 20.1 20.1 20.1 20.1 20.1 20.1 20.1 20.1 20.1 20.1 20.1 20.1 20.1 20.2 20.2 20.2 20.2 20.2 20.0 20.0 20.1 20.1 20.1 20.1 20.1 20.1 20.1 20.1 20.2 20.2 20.2 20.2 20.2 20.2 20.2 20.2 20.2 20.2 20.2 20.2 20.2 20.2 20.3 20.3 20.0 20.0 20.1 20.1 20.1 20.1 20.1 20.1 20.1 20.2 20.2 20.2 20.2 20.2 20.2 20.3 20.3 20.3 20.3 20.3 20.3 20.3 20.3 20.3 20.4 20.4 20.0 20.0 20.1 20.1 20.1 20.1 20.1 20.1 20.2 20.2 20.2 20.2 20.2 20.3 20.3 20.3 20.3 20.4 20.4 20.4 20.4 20.4 20.4 20.5 20.5 20.5 20.0 20.0 20.1 20.1 20.1 20.1 20.1 20.2 20.2 20.2 20.2 20.2 20.3 20.3 20.3 20.4 20.4 20.4 20.5 20.5 20.5 20.5 20.6 20.6 20.6 20.6 20.0 20.0 20.1 20.1 20.1 20.1 20.1 20.2 20.2 20.2 20.2 20.3 20.3 20.3 20.4 20.4 20.4 20.5 20.5 20.6 20.6 20.7 20.7 20.7 20.8 20.8 20.0 20.0 20.1 20.1 20.1 20.1 20.2 20.2 20.2 20.2 20.3 20.3 20.3 20.3 20.4 20.4 20.5 20.5 20.6 20.6 20.7 20.7 20.8 20.9 20.9 21.0 20.0 20.0 20.1 20.1 20.1 20.1 20.2 20.2 20.2 20.2 20.3 20.3 20.3 20.4 20.4 20.5 20.5 20.6 20.6 20.7 20.8 20.8 20.9 21.0 21.1 21.1 20.0 20.0 20.1 20.1 20.1 20.1 20.2 20.2 20.2 20.3 20.3 20.3 20.4 20.4 20.5 20.5 20.6 20.6 20.7 20.8 20.9 20.9 21.0 21.1 21.2 21.3 20.0 20.0 20.0 20.1 20.1 20.1 20.2 20.2 20.2 20.3 20.3 20.3 20.4 20.4 20.5 20.6 20.6 20.7 20.8 20.9 20.9 21.0 21.1 21.2 21.4 21.5 20.0 20.0 20.0 20.1 20.1 20.1 20.2 20.2 20.2 20.3 20.3 20.4 20.4 20.5 20.5 20.6 20.7 20.8 20.8 20.9 21.0 21.2 21.3 21.4 21.5 21.7 20.0 20.0 20.0 20.1 20.1 20.1 20.2 20.2 20.2 20.3 20.3 20.4 20.4 20.5 20.6 20.6 20.7 20.8 20.9 21.0 21.1 21.3 21.4 21.6 21.7 21.9 20.0 20.0 20.1 20.1 20.1 20.2 20.2 20.2 20.2 20.3 20.3 20.4 20.4 20.5 20.6 20.7 20.8 20.9 21.0 21.1 21.3 21.4 21.6 21.8 21.9 22.2 20.0 20.0 20.1 20.1 20.1 20.2 20.2 20.2 20.3 20.3 20.3 20.4 20.5 20.5 20.6 20.7 20.8 20.9 21.1 21.2 21.4 21.5 21.7 22.0 22.2 22.5 20.0 20.0 20.1 20.1 20.1 20.2 20.2 20.3 20.3 20.3 20.4 20.4 20.5 20.6 20.6 20.7 20.8 21.0 21.1 21.3 21.5 21.7 21.9 22.2 22.5 22.8 20.0 20.0 20.1 20.1 20.2 20.2 20.2 20.3 20.3 20.4 20.4 20.5 20.6 20.6 20.7 20.8 20.9 21.1 21.2 21.4 21.6 21.8 22.1 22.4 22.8 23.2 20.0 20.0 20.1 20.1 20.1 20.2 20.2 20.3 20.3 20.4 20.4 20.5 20.6 20.7 20.8 20.9 21.1 21.2 21.4 21.6 21.8 22.1 22.5 22.8 23.3 24.0 20.0 20.0 20.0 20.1 20.1 20.2 20.2 20.2 20.3 20.3 20.4 20.5 20.6 20.7 20.8 20.9 21.1 21.3 21.5 21.8 22.1 22.5 22.9 23.3 24.1 25.0 20.0 20.0 20.0 20.1 20.1 20.1 20.2 20.2 20.2 20.3 20.3 20.4 20.5 20.6 20.7 20.9 21.0 21.3 21.5 21.8 22.2 22.7 23.1 23.6 24.4 25.7 20.0 20.0 20.0 20.1 20.1 20.1 20.2 20.2 20.2 20.3 20.3 20.4 20.5 20.6 20.7 20.9 21.0 21.2 21.5 21.8 22.2 22.6 23.0 23.6 24.4 25.5 20.0 20.0 20.0 20.1 20.1 20.2 20.2 20.2 20.3 20.3 20.4 20.5 20.6 20.7 20.8 20.9 21.1 21.3 21.5 21.8 22.1 22.4 22.8 23.5 24.0 24.7 20.0 20.0 20.1 20.1 20.2 20.2 20.3 20.3 20.3 20.4 20.5 20.5 20.6 20.7 20.9 21.0 21.1 21.3 21.4 21.6 21.9 22.1 22.5 23.0 23.4 23.9 20.0 20.0 20.1 20.1 20.2 20.2 20.3 20.3 20.4 20.4 20.5 20.5 20.6 20.7 20.8 20.9 21.0 21.1 21.3 21.4 21.6 21.9 22.2 22.5 22.8 22.4 20.0 20.0 20.0 20.0 20.0 20.0 20.0 20.0 20.0 20.0 20.0 20.0 20.0 20.0 20.0 20.0 20.0 20.0 20.0 20.0 20.0 20.0 20.0 20.0 20.0 20.0 20.0 20.0 20.0 20.0 20.0 20.0 20.0 20.0 20.0 20.0 20.0 20.0 20.0 20.0 20.0 20.0 20.0 20.0 20.0 20.0 20.0 20.0 20.0 20.0 20.1 20.1 20.0 20.0 20.0 20.1 20.1 20.1 20.1 20.1 20.1 20.1 20.1 20.1 20.1 20.1 20.1 20.1 20.1 20.1 20.1 20.1 20.1 20.1 20.1 20.1 20.1 20.1 20.0 20.0 20.1 20.1 20.1 20.1 20.1 20.1 20.1 20.1 20.1 20.1 20.1 20.1 20.1 20.1 20.1 20.1 20.1 20.1 20.1 20.1 20.1 20.2 20.2 20.2 20.0 20.0 20.1 20.1 20.1 20.1 20.1 20.1 20.1 20.1 20.1 20.1 20.2 20.2 20.2 20.2 20.2 20.2 20.2 20.2 20.2 20.2 20.2 20.2 20.2 20.2 20.0 20.0 20.1 20.1 20.1 20.1 20.1 20.1 20.1 20.1 20.2 20.2 20.2 20.2 20.2 20.2 20.3 20.3 20.3 20.3 20.3 20.3 20.3 20.3 20.3 20.3 20.0 20.0 20.1 20.1 20.1 20.1 20.1 20.1 20.1 20.2 20.2 20.2 20.2 20.2 20.3 20.3 20.3 20.3 20.4 20.4 20.4 20.4 20.4 20.4 20.5 20.5 20.0 20.0 20.1 20.1 20.1 20.1 20.1 20.1 20.2 20.2 20.2 20.2 20.2 20.3 20.3 20.3 20.4 20.4 20.4 20.5 20.5 20.5 20.5 20.6 20.6 20.6 20.0 20.0 20.1 20.1 20.1 20.1 20.1 20.1 20.2 20.2 20.2 20.2 20.3 20.3 20.3 20.4 20.4 20.4 20.5 20.5 20.6 20.6 20.7 20.7 20.7 20.8 20.0 20.0 20.1 20.1 20.1 20.1 20.1 20.2 20.2 20.2 20.2 20.3 20.3 20.3 20.4 20.4 20.4 20.5 20.5 20.6 20.6 20.7 20.8 20.8 20.9 20.9 20.0 20.0 20.1 20.1 20.1 20.1 20.1 20.2 20.2 20.2 20.2 20.3 20.3 20.3 20.4 20.4 20.5 20.5 20.6 20.7 20.7 20.8 20.9 20.9 21.0 21.1 20.0 20.0 20.0 20.1 20.1 20.1 20.1 20.2 20.2 20.2 20.3 20.3 20.3 20.4 20.4 20.5 20.5 20.6 20.7 20.7 20.8 20.9 21.0 21.1 21.2 21.3 20.0 20.0 20.0 20.1 20.1 20.1 20.1 20.2 20.2 20.2 20.3 20.3 20.4 20.4 20.5 20.5 20.6 20.6 20.7 20.8 20.9 21.0 21.1 21.2 21.3 21.5 20.0 20.0 20.0 20.1 20.1 20.1 20.1 20.2 20.2 20.2 20.3 20.3 20.4 20.4 20.5 20.6 20.6 20.7 20.8 20.9 21.0 21.1 21.2 21.4 21.5 21.7 20.0 20.0 20.0 20.1 20.1 20.1 20.1 20.2 20.2 20.2 20.3 20.3 20.4 20.5 20.5 20.6 20.7 20.8 20.9 21.0 21.1 21.2 21.4 21.6 21.7 21.9 20.0 20.0 20.0 20.1 20.1 20.1 20.2 20.2 20.2 20.2 20.3 20.3 20.4 20.5 20.5 20.6 20.7 20.8 21.0 21.1 21.2 21.4 21.6 21.8 22.0 22.2 20.0 20.0 20.0 20.1 20.1 20.1 20.2 20.2 20.2 20.3 20.3 20.3 20.4 20.5 20.6 20.7 20.8 20.9 21.0 21.2 21.3 21.5 21.7 22.0 22.3 22.6 20.0 20.0 20.0 20.1 20.1 20.2 20.2 20.2 20.2 20.3 20.3 20.4 20.4 20.5 20.6 20.7 20.8 20.9 21.1 21.3 21.5 21.7 21.9 22.2 22.5 22.9 20.0 20.0 20.0 20.1 20.1 20.2 20.2 20.2 20.3 20.3 20.3 20.4 20.5 20.5 20.6 20.8 20.9 21.0 21.2 21.4 21.6 21.9 22.2 22.5 22.9 23.4 20.0 20.0 20.0 20.1 20.1 20.2 20.2 20.2 20.3 20.3 20.4 20.4 20.5 20.6 20.7 20.8 21.0 21.2 21.4 21.6 21.8 22.2 22.5 22.9 23.4 24.1 20.0 20.0 20.0 20.1 20.1 20.1 20.2 20.2 20.2 20.3 20.3 20.4 20.5 20.6 20.7 20.9 21.0 21.3 21.5 21.8 22.1 22.6 23.0 23.4 24.1 25.1 20.0 20.0 20.0 20.1 20.1 20.1 20.1 20.2 20.2 20.2 20.3 20.3 20.4 20.5 20.6 20.8 21.0 21.3 21.6 21.9 22.3 22.8 23.3 23.8 24.7 26.2 20.0 20.0 20.0 20.1 20.1 20.1 20.1 20.2 20.2 20.2 20.3 20.3 20.4 20.5 20.6 20.8 21.0 21.3 21.5 21.9 22.3 22.7 23.2 23.9 24.7 26.0 20.0 20.0 20.0 20.1 20.1 20.1 20.2 20.2 20.2 20.3 20.3 20.4 20.5 20.6 20.7 20.9 21.1 21.3 21.5 21.8 22.1 22.4 22.9 23.6 24.2 24.8 20.0 20.0 20.0 20.1 20.1 20.2 20.2 20.3 20.3 20.4 20.4 20.5 20.6 20.7 20.8 20.9 21.1 21.2 21.4 21.6 21.9 22.1 22.5 23.0 23.5 24.0 20.0 20.0 20.1 20.1 20.1 20.2 20.2 20.3 20.3 20.4 20.4 20.5 20.6 20.7 20.7 20.8 21.0 21.1 21.2 21.4 21.7 21.9 22.2 22.6 23.0 22.6 20.0 20.0 20.0 20.0 20.0 20.0 20.0 20.0 20.0 20.0 20.0 20.0 20.0 20.0 20.0 20.0 20.0 20.0 20.0 20.0 20.0 20.0 20.0 20.0 20.0 20.0 20.0 20.0 20.0 20.0 20.0 20.0 20.0 20.0 20.0 20.0 20.0 20.0 20.0 20.0 20.0 20.0 20.0 20.0 20.0 20.0 20.0 20.0 20.0 20.0 20.0 20.0 20.0 20.0 20.0 20.0 20.0 20.0 20.0 20.1 20.1 20.1 20.1 20.1 20.1 20.1 20.1 20.1 20.1 20.1 20.1 20.1 20.1 20.1 20.1 20.1 20.1 20.1 20.0 20.0 20.0 20.0 20.1 20.1 20.1 20.1 20.1 20.1 20.1 20.1 20.1 20.1 20.1 20.1 20.1 20.1 20.1 20.1 20.1 20.1 20.1 20.1 20.1 20.2 20.0 20.0 20.0 20.1 20.1 20.1 20.1 20.1 20.1 20.1 20.1 20.1 20.1 20.1 20.1 20.2 20.2 20.2 20.2 20.2 20.2 20.2 20.2 20.2 20.2 20.2 20.0 20.0 20.0 20.1 20.1 20.1 20.1 20.1 20.1 20.1 20.1 20.1 20.2 20.2 20.2 20.2 20.2 20.2 20.2 20.2 20.3 20.3 20.3 20.3 20.3 20.3 20.0 20.0 20.0 20.1 20.1 20.1 20.1 20.1 20.1 20.1 20.1 20.2 20.2 20.2 20.2 20.2 20.3 20.3 20.3 20.3 20.3 20.4 20.4 20.4 20.4 20.4 20.0 20.0 20.0 20.1 20.1 20.1 20.1 20.1 20.1 20.1 20.2 20.2 20.2 20.2 20.2 20.3 20.3 20.3 20.4 20.4 20.4 20.5 20.5 20.5 20.5 20.6 20.0 20.0 20.0 20.1 20.1 20.1 20.1 20.1 20.1 20.2 20.2 20.2 20.2 20.2 20.3 20.3 20.3 20.4 20.4 20.5 20.5 20.5 20.6 20.6 20.7 20.7 20.0 20.0 20.0 20.1 20.1 20.1 20.1 20.1 20.1 20.2 20.2 20.2 20.2 20.3 20.3 20.3 20.4 20.4 20.5 20.5 20.6 20.6 20.7 20.8 20.8 20.9 20.0 20.0 20.0 20.1 20.1 20.1 20.1 20.1 20.2 20.2 20.2 20.2 20.3 20.3 20.3 20.4 20.4 20.5 20.5 20.6 20.6 20.7 20.8 20.9 21.0 21.1 20.0 20.0 20.0 20.1 20.1 20.1 20.1 20.1 20.2 20.2 20.2 20.3 20.3 20.3 20.4 20.4 20.5 20.5 20.6 20.7 20.7 20.8 20.9 21.0 21.1 21.2 20.0 20.0 20.0 20.1 20.1 20.1 20.1 20.1 20.2 20.2 20.2 20.3 20.3 20.4 20.4 20.5 20.5 20.6 20.7 20.7 20.8 20.9 21.0 21.2 21.3 21.5 20.0 20.0 20.0 20.1 20.1 20.1 20.1 20.1 20.2 20.2 20.2 20.3 20.3 20.4 20.4 20.5 20.6 20.6 20.7 20.8 20.9 21.1 21.2 21.3 21.5 21.7 20.0 20.0 20.0 20.1 20.1 20.1 20.1 20.1 20.2 20.2 20.2 20.3 20.3 20.4 20.5 20.5 20.6 20.7 20.8 20.9 21.1 21.2 21.4 21.6 21.8 22.0 20.0 20.0 20.0 20.1 20.1 20.1 20.1 20.1 20.2 20.2 20.2 20.3 20.3 20.4 20.5 20.6 20.7 20.8 20.9 21.0 21.2 21.4 21.6 21.8 22.0 22.3 20.0 20.0 20.0 20.1 20.1 20.1 20.1 20.1 20.2 20.2 20.2 20.3 20.3 20.4 20.5 20.6 20.7 20.8 21.0 21.1 21.3 21.5 21.8 22.0 22.3 22.7 20.0 20.0 20.0 20.1 20.1 20.1 20.1 20.1 20.2 20.2 20.2 20.3 20.3 20.5 20.6 20.7 20.8 20.9 21.1 21.3 21.5 21.7 22.0 22.3 22.7 23.2 20.0 20.0 20.0 20.1 20.1 20.1 20.1 20.1 20.2 20.2 20.2 20.3 20.3 20.5 20.7 20.9 20.9 21.0 21.2 21.4 21.7 21.9 22.3 22.7 23.1 23.7 20.0 20.0 20.0 20.0 20.1 20.1 20.1 20.1 20.2 20.2 20.2 20.3 20.3 20.5 20.8 21.0 21.1 21.2 21.4 21.6 21.9 22.2 22.6 23.1 23.7 24.8 20.0 20.0 20.0 20.0 20.1 20.1 20.1 20.1 20.1 20.2 20.2 20.2 20.3 20.5 20.8 21.1 21.2 21.3 21.6 21.8 22.2 22.7 23.1 23.6 24.5 26.0 20.0 20.0 20.0 20.0 20.1 20.1 20.1 20.1 20.1 20.1 20.2 20.2 20.3 20.5 20.8 21.2 21.2 21.4 21.6 22.0 22.4 23.0 23.5 24.2 25.3 27.1 20.0 20.0 20.0 20.0 20.1 20.1 20.1 20.1 20.1 20.1 20.2 20.2 20.3 20.5 20.8 21.1 21.2 21.4 21.6 22.0 22.4 22.9 23.4 24.3 25.5 26.9 20.0 20.0 20.0 20.0 20.1 20.1 20.1 20.1 20.2 20.2 20.2 20.3 20.4 20.5 20.8 21.0 21.1 21.3 21.5 21.9 22.2 22.6 23.1 23.9 24.7 25.5 20.0 20.0 20.0 20.1 20.1 20.1 20.2 20.2 20.2 20.3 20.3 20.4 20.5 20.6 20.7 20.9 21.0 21.2 21.4 21.6 21.9 22.2 22.7 23.2 23.8 24.5 20.0 20.0 20.0 20.1 20.1 20.1 20.2 20.2 20.3 20.3 20.3 20.4 20.5 20.6 20.7 20.8 20.9 21.0 21.2 21.4 21.7 22.0 22.4 22.8 23.2 22.9 20.0 20.0 20.0 20.0 20.0 20.0 20.0 20.0 20.0 20.0 20.0 20.0 20.0 20.0 20.0 20.0 20.0 20.0 20.0 20.0 20.0 20.0 20.0 20.0 20.0 20.0 20.0 20.0 20.0 20.0 20.0 20.0 20.0 20.0 20.0 20.0 20.0 20.0 20.0 20.0 20.0 20.0 20.0 20.0 20.0 20.0 20.0 20.0 20.0 20.0 20.0 20.0 20.0 20.0 20.0 20.0 20.0 20.0 20.0 20.0 20.0 20.0 20.1 20.1 20.1 20.1 20.1 20.1 20.1 20.1 20.1 20.1 20.1 20.1 20.1 20.1 20.1 20.1 20.0 20.0 20.0 20.0 20.1 20.1 20.1 20.1 20.1 20.1 20.1 20.1 20.1 20.1 20.1 20.1 20.1 20.1 20.1 20.1 20.1 20.1 20.1 20.1 20.1 20.2 20.0 20.0 20.0 20.0 20.1 20.1 20.1 20.1 20.1 20.2 20.1 20.1 20.1 20.1 20.1 20.2 20.2 20.2 20.2 20.2 20.2 20.2 20.2 20.2 20.2 20.2 20.0 20.0 20.0 20.1 20.1 20.1 20.1 20.1 20.1 20.2 20.1 20.1 20.2 20.2 20.2 20.2 20.2 20.2 20.2 20.2 20.3 20.3 20.3 20.3 20.3 20.3 20.0 20.0 20.0 20.1 20.1 20.1 20.1 20.1 20.1 20.1 20.2 20.2 20.2 20.2 20.2 20.2 20.3 20.3 20.3 20.3 20.3 20.4 20.4 20.4 20.4 20.5 20.0 20.0 20.0 20.1 20.1 20.1 20.1 20.1 20.1 20.1 20.2 20.2 20.2 20.2 20.2 20.3 20.3 20.3 20.4 20.4 20.4 20.5 20.5 20.5 20.6 20.6 20.0 20.0 20.0 20.1 20.1 20.1 20.1 20.1 20.1 20.1 20.2 20.2 20.3 20.3 20.3 20.3 20.3 20.4 20.4 20.5 20.5 20.5 20.6 20.6 20.7 20.7 20.0 20.0 20.0 20.1 20.1 20.1 20.1 20.1 20.1 20.2 20.2 20.2 20.3 20.4 20.5 20.4 20.4 20.4 20.5 20.5 20.6 20.6 20.7 20.8 20.8 20.9 20.0 20.0 20.0 20.1 20.1 20.1 20.1 20.1 20.2 20.2 20.2 20.2 20.3 20.5 20.5 20.4 20.4 20.5 20.5 20.6 20.6 20.7 20.8 20.9 21.0 21.1 20.0 20.0 20.0 20.1 20.1 20.1 20.1 20.1 20.2 20.2 20.2 20.2 20.3 20.4 20.4 20.4 20.5 20.5 20.6 20.7 20.7 20.8 20.9 21.0 21.1 21.3 20.0 20.0 20.0 20.1 20.1 20.1 20.1 20.1 20.2 20.2 20.2 20.3 20.3 20.4 20.4 20.5 20.5 20.6 20.7 20.8 20.9 21.0 21.1 21.2 21.3 21.5 20.0 20.0 20.0 20.1 20.1 20.1 20.1 20.1 20.2 20.2 20.2 20.3 20.3 20.4 20.4 20.5 20.6 20.7 20.8 20.9 21.0 21.1 21.2 21.4 21.5 21.7 20.0 20.0 20.0 20.0 20.1 20.1 20.1 20.1 20.2 20.2 20.2 20.3 20.3 20.4 20.5 20.5 20.6 20.7 20.8 21.0 21.1 21.2 21.4 21.6 21.8 22.0 20.0 20.0 20.0 20.0 20.1 20.1 20.1 20.1 20.1 20.2 20.2 20.3 20.3 20.4 20.5 20.6 20.7 20.8 20.9 21.1 21.2 21.4 21.6 21.8 22.1 22.4 20.0 20.0 20.0 20.0 20.1 20.1 20.1 20.1 20.1 20.2 20.2 20.3 20.3 20.4 20.6 20.7 20.8 20.9 21.0 21.2 21.4 21.6 21.8 22.1 22.4 22.8 20.0 20.0 20.0 20.0 20.1 20.1 20.1 20.1 20.1 20.2 20.2 20.3 20.3 20.4 20.8 21.0 21.0 21.0 21.1 21.3 21.5 21.8 22.1 22.4 22.8 23.4 20.0 20.0 20.0 20.0 20.1 20.1 20.1 20.1 20.1 20.1 20.2 20.2 20.3 20.3 21.0 21.5 21.2 21.2 21.3 21.5 21.7 22.0 22.4 22.8 23.5 24.3 20.0 20.0 20.0 20.0 20.1 20.1 20.1 20.1 20.1 20.1 20.2 20.2 20.3 20.3 21.2 21.9 21.5 21.4 21.5 21.7 22.0 22.4 22.8 23.4 24.3 26.0 20.0 20.0 20.0 20.0 20.0 20.1 20.1 20.1 20.1 20.1 20.2 20.2 20.3 20.3 21.4 22.2 21.7 21.5 21.7 21.9 22.3 22.8 23.3 24.0 25.1 28.3 20.0 20.0 20.0 20.0 20.0 20.1 20.1 20.1 20.1 20.1 20.2 20.2 20.3 20.3 21.6 22.4 21.8 21.6 21.7 22.0 22.5 23.1 23.7 24.8 26.5 31.6 20.0 20.0 20.0 20.0 20.0 20.1 20.1 20.1 20.1 20.1 20.2 20.2 20.3 20.3 21.5 22.3 21.7 21.6 21.7 22.0 22.5 23.0 23.8 25.0 26.6 31.2 20.0 20.0 20.0 20.0 20.1 20.1 20.1 20.1 20.1 20.2 20.2 20.3 20.4 20.5 21.1 21.6 21.4 21.4 21.6 21.9 22.3 22.8 23.4 24.3 25.2 27.1 20.0 20.0 20.0 20.1 20.1 20.1 20.1 20.2 20.2 20.2 20.3 20.4 20.5 20.6 20.8 20.9 21.1 21.2 21.4 21.7 22.0 22.4 22.9 23.5 24.1 24.9 20.0 20.0 20.0 20.1 20.1 20.1 20.2 20.2 20.2 20.3 20.3 20.4 20.5 20.5 20.6 20.8 20.9 21.1 21.3 21.5 21.8 22.1 22.5 22.9 23.4 23.0 20.0 20.0 20.0 20.0 20.0 20.0 20.0 20.0 20.0 20.0 20.0 20.0 20.0 20.0 20.0 20.0 20.0 20.0 20.0 20.0 20.0 20.0 20.0 20.0 20.0 20.0 20.0 20.0 20.0 20.0 20.0 20.0 20.0 20.0 20.0 20.0 20.0 20.0 20.0 20.0 20.0 20.0 20.0 20.0 20.0 20.0 20.0 20.0 20.0 20.0 20.0 20.1 20.0 20.0 20.0 20.0 20.0 20.0 20.0 20.1 20.1 20.1 20.1 20.1 20.1 20.1 20.1 20.1 20.1 20.1 20.1 20.1 20.1 20.1 20.1 20.1 20.1 20.1 20.0 20.0 20.0 20.0 20.1 20.1 20.1 20.1 20.1 20.1 20.1 20.1 20.1 20.1 20.1 20.1 20.1 20.1 20.1 20.1 20.1 20.1 20.2 20.2 20.2 20.2 20.0 20.0 20.0 20.1 20.1 20.1 20.1 20.1 20.2 20.2 20.1 20.1 20.1 20.2 20.2 20.2 20.2 20.2 20.2 20.2 20.2 20.2 20.2 20.2 20.2 20.3 20.0 20.0 20.0 20.1 20.1 20.1 20.1 20.1 20.2 20.2 20.2 20.2 20.2 20.2 20.2 20.2 20.2 20.3 20.3 20.3 20.3 20.3 20.3 20.3 20.4 20.4 20.0 20.0 20.1 20.1 20.1 20.1 20.1 20.1 20.1 20.2 20.2 20.2 20.2 20.2 20.2 20.3 20.3 20.3 20.3 20.4 20.4 20.4 20.4 20.5 20.5 20.5 20.0 20.0 20.1 20.1 20.1 20.1 20.1 20.1 20.1 20.2 20.2 20.2 20.2 20.3 20.3 20.3 20.3 20.4 20.4 20.4 20.5 20.5 20.5 20.6 20.6 20.7 20.0 20.0 20.1 20.1 20.1 20.1 20.1 20.1 20.1 20.2 20.2 20.2 20.3 20.4 20.4 20.4 20.4 20.4 20.5 20.5 20.6 20.6 20.7 20.7 20.8 20.8 20.0 20.0 20.0 20.1 20.1 20.1 20.1 20.1 20.2 20.2 20.2 20.2 20.4 20.5 20.5 20.4 20.4 20.5 20.5 20.6 20.6 20.7 20.8 20.8 20.9 21.0 20.0 20.0 20.0 20.1 20.1 20.1 20.1 20.2 20.2 20.2 20.2 20.3 20.3 20.5 20.6 20.5 20.5 20.5 20.6 20.7 20.7 20.8 20.9 21.0 21.0 21.1 20.0 20.0 20.0 20.1 20.1 20.1 20.1 20.2 20.2 20.2 20.2 20.3 20.3 20.4 20.5 20.5 20.5 20.6 20.7 20.7 20.8 20.9 21.0 21.1 21.2 21.3 20.0 20.0 20.0 20.1 20.1 20.1 20.1 20.2 20.2 20.2 20.3 20.3 20.4 20.4 20.5 20.5 20.6 20.7 20.8 20.8 20.9 21.0 21.1 21.3 21.4 21.5 20.0 20.0 20.0 20.1 20.1 20.1 20.1 20.2 20.2 20.2 20.3 20.3 20.4 20.4 20.5 20.6 20.7 20.7 20.8 20.9 21.1 21.2 21.3 21.5 21.6 21.8 20.0 20.0 20.0 20.1 20.1 20.1 20.1 20.1 20.2 20.2 20.3 20.3 20.4 20.4 20.5 20.6 20.7 20.8 20.9 21.1 21.2 21.3 21.5 21.7 21.9 22.1 20.0 20.0 20.0 20.1 20.1 20.1 20.1 20.1 20.2 20.2 20.2 20.3 20.4 20.4 20.5 20.7 20.8 20.9 21.0 21.2 21.3 21.5 21.7 21.9 22.1 22.5 20.0 20.0 20.0 20.0 20.1 20.1 20.1 20.1 20.2 20.2 20.3 20.3 20.4 20.5 20.6 20.8 20.9 21.0 21.1 21.3 21.5 21.7 21.9 22.2 23.0 23.6 20.0 20.0 20.0 20.0 20.1 20.1 20.1 20.1 20.1 20.2 20.2 20.3 20.5 20.5 20.9 21.2 21.1 21.1 21.3 21.4 21.6 21.9 22.1 22.5 23.7 24.6 20.0 20.0 20.0 20.0 20.1 20.1 20.1 20.1 20.1 20.1 20.1 20.3 20.6 20.6 21.2 21.8 21.5 21.4 21.5 21.7 21.9 22.1 22.4 23.0 24.8 26.3 20.0 20.0 20.0 20.0 20.0 20.1 20.1 20.1 20.1 20.1 20.1 20.3 20.6 20.6 21.5 22.3 21.9 21.7 21.8 21.9 22.2 22.5 22.9 23.8 27.8 33.2 20.0 20.0 20.0 20.0 20.0 20.1 20.1 20.1 20.1 20.1 20.1 20.3 20.6 20.7 21.8 22.7 22.3 22.0 22.0 22.2 22.5 23.0 23.6 24.6 29.0 39.5 20.0 20.0 20.0 20.0 20.0 20.1 20.1 20.1 20.2 20.1 20.1 20.3 20.6 20.7 22.0 23.1 22.5 22.1 22.1 22.3 22.7 23.4 24.5 26.2 29.1 47.2 20.0 20.0 20.0 20.0 20.0 20.1 20.1 20.1 20.2 20.1 20.1 20.3 20.6 20.7 21.9 22.9 22.4 22.1 22.1 22.3 22.7 23.4 24.7 26.4 28.7 43.4 20.0 20.0 20.0 20.0 20.1 20.1 20.1 20.1 20.2 20.2 20.3 20.4 20.7 20.7 21.4 22.0 21.8 21.8 21.9 22.1 22.6 23.0 23.7 24.6 26.1 29.7 20.0 20.0 20.0 20.1 20.1 20.1 20.1 20.2 20.2 20.3 20.4 20.5 20.6 20.7 20.9 21.1 21.3 21.4 21.6 21.9 22.2 22.6 23.0 23.5 24.3 25.6 20.0 20.0 20.0 20.1 20.1 20.1 20.2 20.2 20.3 20.3 20.4 20.4 20.5 20.6 20.7 20.9 21.0 21.2 21.4 21.7 21.9 22.3 22.6 23.0 23.5 23.2 20.0 20.0 20.0 20.0 20.0 20.0 20.0 20.0 20.0 20.0 20.0 20.0 20.0 20.0 20.0 20.0 20.0 20.0 20.0 20.0 20.0 20.0 20.0 20.0 20.0 20.0 20.0 20.0 20.0 20.0 20.0 20.0 20.0 20.0 20.0 20.0 20.0 20.0 20.0 20.0 20.0 20.0 20.0 20.0 20.0 20.0 20.0 20.0 20.0 20.1 20.1 20.1 20.0 20.0 20.1 20.1 20.1 20.1 20.1 20.1 20.1 20.1 20.1 20.1 20.1 20.1 20.1 20.1 20.1 20.1 20.1 20.1 20.1 20.1 20.1 20.1 20.1 20.1 20.0 20.0 20.1 20.1 20.1 20.1 20.1 20.1 20.1 20.1 20.1 20.1 20.1 20.1 20.1 20.1 20.2 20.2 20.2 20.2 20.2 20.2 20.2 20.2 20.2 20.2 20.0 20.0 20.1 20.1 20.1 20.1 20.1 20.1 20.1 20.2 20.2 20.2 20.2 20.2 20.2 20.2 20.2 20.2 20.2 20.2 20.3 20.3 20.3 20.3 20.3 20.3 20.0 20.0 20.1 20.1 20.1 20.1 20.1 20.1 20.2 20.2 20.2 20.2 20.2 20.2 20.3 20.3 20.3 20.3 20.3 20.3 20.4 20.4 20.4 20.4 20.4 20.4 20.0 20.0 20.1 20.1 20.1 20.1 20.1 20.1 20.2 20.2 20.2 20.2 20.2 20.3 20.3 20.3 20.3 20.4 20.4 20.4 20.5 20.5 20.5 20.5 20.5 20.6 20.0 20.0 20.1 20.1 20.1 20.1 20.1 20.1 20.2 20.2 20.2 20.2 20.3 20.3 20.3 20.4 20.4 20.4 20.5 20.5 20.5 20.6 20.6 20.6 20.7 20.7 20.0 20.0 20.1 20.1 20.1 20.1 20.1 20.2 20.2 20.2 20.2 20.3 20.3 20.4 20.4 20.4 20.4 20.5 20.5 20.6 20.6 20.7 20.7 20.8 20.8 20.9 20.0 20.0 20.1 20.1 20.1 20.1 20.2 20.2 20.2 20.2 20.3 20.3 20.4 20.4 20.4 20.5 20.5 20.5 20.6 20.6 20.7 20.8 20.8 20.9 21.0 21.0 20.0 20.0 20.1 20.1 20.1 20.1 20.2 20.2 20.2 20.2 20.3 20.3 20.4 20.4 20.5 20.5 20.5 20.6 20.7 20.7 20.8 20.9 20.9 21.0 21.1 21.2 20.0 20.0 20.1 20.1 20.1 20.1 20.2 20.2 20.2 20.3 20.3 20.3 20.4 20.4 20.5 20.5 20.6 20.7 20.7 20.8 20.9 21.0 21.0 21.1 21.2 21.4 20.0 20.0 20.0 20.1 20.1 20.1 20.2 20.2 20.2 20.3 20.3 20.4 20.4 20.5 20.5 20.6 20.7 20.7 20.8 20.9 21.0 21.1 21.2 21.3 21.4 21.6 20.0 20.0 20.0 20.1 20.1 20.1 20.2 20.2 20.2 20.3 20.3 20.4 20.4 20.5 20.6 20.6 20.7 20.8 20.9 21.0 21.1 21.2 21.3 21.5 21.6 21.8 20.0 20.0 20.0 20.1 20.1 20.1 20.2 20.2 20.2 20.3 20.3 20.4 20.4 20.5 20.6 20.7 20.8 20.9 21.0 21.1 21.2 21.4 21.5 21.7 21.9 22.2 20.0 20.0 20.0 20.1 20.1 20.1 20.1 20.2 20.2 20.3 20.3 20.4 20.4 20.5 20.6 20.7 20.8 20.9 21.1 21.2 21.4 21.5 21.7 21.9 22.4 23.6 20.0 20.0 20.0 20.1 20.1 20.1 20.1 20.2 20.2 20.3 20.3 20.4 20.5 20.6 20.7 20.8 20.9 21.0 21.2 21.3 21.5 21.7 21.9 22.6 25.4 27.6 20.0 20.0 20.0 20.0 20.1 20.1 20.1 20.2 20.2 20.3 20.3 20.5 20.6 20.7 20.9 21.0 21.1 21.2 21.3 21.5 21.7 21.9 22.1 23.1 28.5 31.1 20.0 20.0 20.0 20.0 20.1 20.1 20.1 20.2 20.2 20.3 20.3 20.6 20.8 20.9 21.1 21.3 21.4 21.5 21.6 21.7 21.9 22.2 22.5 24.9 32.2 35.3 20.0 20.0 20.0 20.0 20.1 20.1 20.1 20.2 20.2 20.3 20.3 20.6 20.9 21.1 21.3 21.7 21.9 22.0 22.0 22.2 22.4 22.6 23.1 27.6 42.6 58.0 20.0 20.0 20.0 20.0 20.1 20.1 20.1 20.2 20.3 20.3 20.3 20.6 21.0 21.1 21.5 22.1 22.4 22.4 22.4 22.5 22.8 23.2 23.8 27.1 44.4 80.2 20.0 20.0 20.0 20.0 20.0 20.1 20.1 20.2 20.3 20.3 20.3 20.6 20.9 21.1 21.6 22.3 22.7 22.6 22.6 22.7 23.0 23.7 25.1 27.4 42.2 97.2 20.0 20.0 20.0 20.0 20.1 20.1 20.1 20.2 20.3 20.3 20.3 20.6 20.9 21.1 21.5 22.2 22.6 22.6 22.6 22.7 23.0 23.7 25.3 28.4 44.2 89.4 20.0 20.0 20.0 20.0 20.1 20.1 20.1 20.2 20.3 20.3 20.4 20.6 20.9 21.0 21.3 21.7 22.0 22.1 22.2 22.5 22.8 23.2 23.9 26.0 36.3 53.4 20.0 20.0 20.0 20.1 20.1 20.1 20.2 20.2 20.3 20.4 20.5 20.6 20.7 20.8 21.0 21.2 21.4 21.6 21.8 22.1 22.4 22.7 23.0 24.1 27.5 33.3 20.0 20.0 20.1 20.1 20.1 20.2 20.2 20.3 20.3 20.4 20.4 20.5 20.6 20.7 20.8 21.0 21.1 21.3 21.5 21.7 22.0 22.3 22.6 23.5 24.6 24.8 20.0 20.0 20.0 20.0 20.0 20.0 20.0 20.0 20.0 20.0 20.0 20.0 20.0 20.0 20.0 20.0 20.0 20.0 20.0 20.0 20.0 20.0 20.0 20.0 20.0 20.0 20.0 20.0 20.1 20.1 20.0 20.0 20.0 20.0 20.0 20.0 20.0 20.0 20.0 20.0 20.0 20.0 20.0 20.0 20.0 20.0 20.0 20.0 20.1 20.1 20.1 20.1 20.0 20.1 20.1 20.1 20.1 20.1 20.1 20.1 20.1 20.1 20.1 20.1 20.1 20.1 20.1 20.1 20.1 20.1 20.1 20.1 20.1 20.1 20.1 20.1 20.1 20.1 20.0 20.0 20.1 20.1 20.1 20.1 20.1 20.1 20.1 20.1 20.1 20.2 20.2 20.2 20.2 20.2 20.2 20.2 20.2 20.2 20.2 20.2 20.2 20.2 20.2 20.2 20.0 20.0 20.1 20.1 20.1 20.1 20.1 20.1 20.2 20.2 20.2 20.2 20.2 20.2 20.2 20.2 20.3 20.3 20.3 20.3 20.3 20.3 20.3 20.3 20.3 20.3 20.0 20.0 20.1 20.1 20.1 20.1 20.1 20.2 20.2 20.2 20.2 20.2 20.3 20.3 20.3 20.3 20.3 20.3 20.4 20.4 20.4 20.4 20.4 20.4 20.4 20.5 20.0 20.0 20.1 20.1 20.1 20.1 20.1 20.2 20.2 20.2 20.2 20.3 20.3 20.3 20.3 20.4 20.4 20.4 20.4 20.5 20.5 20.5 20.5 20.5 20.6 20.6 20.0 20.0 20.1 20.1 20.1 20.1 20.2 20.2 20.2 20.2 20.2 20.3 20.3 20.3 20.4 20.4 20.4 20.5 20.5 20.5 20.6 20.6 20.6 20.7 20.7 20.8 20.0 20.0 20.1 20.1 20.1 20.2 20.2 20.2 20.2 20.2 20.3 20.3 20.3 20.4 20.4 20.4 20.5 20.5 20.6 20.6 20.6 20.7 20.7 20.8 20.8 20.9 20.0 20.0 20.1 20.1 20.1 20.2 20.2 20.2 20.2 20.3 20.3 20.3 20.4 20.4 20.4 20.5 20.5 20.6 20.6 20.7 20.7 20.8 20.8 20.9 21.0 21.1 20.0 20.0 20.1 20.1 20.1 20.2 20.2 20.2 20.3 20.3 20.3 20.4 20.4 20.4 20.5 20.5 20.6 20.6 20.7 20.7 20.8 20.8 20.9 21.0 21.1 21.2 20.0 20.0 20.1 20.1 20.1 20.2 20.2 20.2 20.3 20.3 20.3 20.4 20.4 20.5 20.5 20.6 20.6 20.7 20.7 20.8 20.9 20.9 21.0 21.1 21.2 21.4 20.0 20.0 20.1 20.1 20.1 20.2 20.2 20.2 20.3 20.3 20.3 20.4 20.4 20.5 20.6 20.6 20.7 20.7 20.8 20.9 21.0 21.0 21.1 21.2 21.4 21.6 20.0 20.0 20.1 20.1 20.1 20.2 20.2 20.2 20.3 20.3 20.4 20.4 20.5 20.5 20.6 20.7 20.7 20.8 20.9 21.0 21.1 21.2 21.3 21.4 21.6 21.8 20.0 20.0 20.1 20.1 20.1 20.2 20.2 20.2 20.3 20.3 20.4 20.4 20.5 20.5 20.6 20.7 20.8 20.9 21.0 21.1 21.2 21.3 21.4 21.6 21.8 22.2 20.0 20.0 20.1 20.1 20.1 20.2 20.2 20.2 20.3 20.3 20.4 20.4 20.5 20.6 20.6 20.7 20.8 20.9 21.0 21.2 21.3 21.4 21.6 21.8 22.6 24.6 20.0 20.0 20.1 20.1 20.1 20.2 20.2 20.2 20.3 20.4 20.4 20.5 20.5 20.6 20.7 20.8 20.9 21.0 21.1 21.3 21.4 21.6 21.8 22.7 27.1 32.3 20.0 20.0 20.0 20.1 20.1 20.1 20.2 20.2 20.3 20.4 20.5 20.6 20.6 20.7 20.8 20.9 21.0 21.1 21.2 21.4 21.6 21.9 22.4 24.2 34.5 43.1 20.0 20.0 20.0 20.1 20.1 20.1 20.2 20.2 20.3 20.4 20.6 20.7 20.8 20.8 20.9 21.0 21.2 21.4 21.5 21.7 21.9 22.5 23.2 26.6 42.7 58.5 20.0 20.0 20.0 20.1 20.1 20.1 20.2 20.2 20.3 20.4 20.6 20.7 20.9 21.0 21.1 21.3 21.6 21.8 22.0 22.2 22.4 23.0 23.8 29.0 54.1 96.2 20.0 20.0 20.0 20.1 20.1 20.1 20.1 20.2 20.3 20.4 20.6 20.7 20.9 21.0 21.1 21.5 22.1 22.4 22.5 22.7 23.2 23.8 24.2 27.8 53.2 131.3 20.0 20.0 20.0 20.1 20.1 20.1 20.1 20.2 20.3 20.4 20.6 20.7 20.8 20.9 21.1 21.6 22.4 22.7 22.8 23.0 23.6 24.2 25.1 27.5 56.4 161.2 20.0 20.0 20.0 20.1 20.1 20.1 20.1 20.2 20.3 20.4 20.6 20.7 20.8 20.9 21.1 21.6 22.2 22.6 22.8 23.0 23.3 23.8 25.0 28.9 65.6 155.3 20.0 20.0 20.0 20.1 20.1 20.1 20.2 20.2 20.3 20.4 20.6 20.7 20.8 21.0 21.1 21.4 21.8 22.1 22.4 22.6 22.9 23.1 24.0 28.1 52.6 97.1 20.0 20.0 20.1 20.1 20.2 20.2 20.2 20.3 20.4 20.5 20.6 20.7 20.8 20.9 21.0 21.2 21.4 21.6 21.8 22.1 22.3 22.5 23.2 27.9 37.9 52.1 20.0 20.0 20.1 20.1 20.2 20.2 20.3 20.3 20.4 20.5 20.5 20.6 20.7 20.8 20.9 21.0 21.2 21.3 21.5 21.7 21.9 22.2 22.6 26.0 31.8 32.1 20.0 20.0 20.0 20.0 20.0 20.0 20.0 20.0 20.0 20.0 20.0 20.0 20.0 20.0 20.0 20.0 20.0 20.0 20.0 20.0 20.0 20.0 20.0 20.0 20.0 20.0 20.0 20.1 20.1 20.1 20.1 20.1 20.1 20.1 20.1 20.0 20.0 20.0 20.0 20.0 20.0 20.0 20.0 20.0 20.0 20.0 20.0 20.0 20.0 20.1 20.1 20.1 20.0 20.1 20.1 20.1 20.1 20.1 20.1 20.1 20.1 20.1 20.1 20.1 20.1 20.1 20.1 20.1 20.1 20.1 20.1 20.1 20.1 20.1 20.1 20.1 20.1 20.1 20.0 20.1 20.1 20.1 20.1 20.1 20.1 20.1 20.2 20.2 20.2 20.2 20.2 20.2 20.2 20.2 20.2 20.2 20.2 20.2 20.2 20.2 20.2 20.2 20.2 20.2 20.0 20.1 20.1 20.1 20.1 20.1 20.2 20.2 20.2 20.2 20.2 20.2 20.2 20.2 20.3 20.3 20.3 20.3 20.3 20.3 20.3 20.3 20.3 20.3 20.3 20.3 20.0 20.1 20.1 20.1 20.1 20.1 20.2 20.2 20.2 20.2 20.2 20.3 20.3 20.3 20.3 20.3 20.3 20.4 20.4 20.4 20.4 20.4 20.4 20.4 20.4 20.5 20.0 20.1 20.1 20.1 20.1 20.2 20.2 20.2 20.2 20.2 20.2 20.3 20.3 20.3 20.3 20.4 20.4 20.4 20.4 20.5 20.5 20.5 20.5 20.5 20.6 20.6 20.0 20.0 20.1 20.1 20.2 20.2 20.2 20.2 20.2 20.2 20.3 20.3 20.3 20.3 20.4 20.4 20.4 20.5 20.5 20.5 20.6 20.6 20.6 20.7 20.7 20.8 20.0 20.0 20.1 20.1 20.2 20.2 20.2 20.2 20.2 20.3 20.3 20.3 20.3 20.4 20.4 20.4 20.5 20.5 20.5 20.6 20.6 20.7 20.7 20.8 20.8 20.9 20.0 20.0 20.1 20.1 20.2 20.2 20.2 20.2 20.3 20.3 20.3 20.3 20.4 20.4 20.4 20.5 20.5 20.5 20.6 20.6 20.7 20.7 20.8 20.9 20.9 21.1 20.0 20.0 20.1 20.1 20.2 20.2 20.2 20.2 20.3 20.3 20.3 20.4 20.4 20.4 20.5 20.5 20.5 20.6 20.6 20.7 20.7 20.8 20.9 21.0 21.0 21.2 20.0 20.0 20.1 20.1 20.2 20.2 20.2 20.2 20.3 20.3 20.4 20.4 20.4 20.5 20.5 20.5 20.6 20.6 20.7 20.7 20.8 20.9 21.0 21.1 21.2 21.3 20.0 20.0 20.1 20.1 20.2 20.2 20.2 20.2 20.3 20.3 20.4 20.4 20.4 20.5 20.5 20.6 20.6 20.7 20.8 20.8 20.9 21.0 21.1 21.2 21.3 21.5 20.0 20.0 20.1 20.1 20.2 20.2 20.2 20.2 20.3 20.3 20.4 20.4 20.5 20.5 20.6 20.6 20.7 20.7 20.8 20.9 21.0 21.1 21.2 21.3 21.5 21.7 20.0 20.0 20.1 20.1 20.2 20.2 20.2 20.3 20.3 20.3 20.4 20.4 20.5 20.5 20.6 20.7 20.7 20.8 20.9 21.0 21.1 21.2 21.3 21.5 21.7 22.0 20.0 20.0 20.1 20.1 20.2 20.2 20.2 20.3 20.3 20.3 20.4 20.4 20.5 20.5 20.6 20.7 20.8 20.9 21.0 21.1 21.2 21.3 21.5 21.7 22.5 24.1 20.0 20.0 20.1 20.1 20.2 20.2 20.3 20.3 20.3 20.4 20.4 20.5 20.5 20.6 20.6 20.7 20.8 20.9 21.0 21.1 21.3 21.6 22.2 22.8 26.1 32.7 20.0 20.0 20.1 20.1 20.2 20.2 20.3 20.3 20.4 20.4 20.5 20.5 20.6 20.7 20.7 20.8 20.9 21.0 21.1 21.3 21.7 23.4 24.6 25.8 35.3 47.3 20.0 20.0 20.1 20.1 20.2 20.2 20.3 20.3 20.4 20.4 20.5 20.6 20.7 20.8 20.8 20.9 21.1 21.2 21.4 21.6 22.6 26.1 27.2 27.9 45.1 68.7 20.0 20.0 20.1 20.1 20.2 20.2 20.3 20.3 20.4 20.4 20.5 20.6 20.7 20.8 20.9 21.1 21.3 21.6 21.8 22.0 23.1 26.4 27.8 28.2 51.0 107.6 20.0 20.0 20.1 20.1 20.1 20.2 20.2 20.3 20.3 20.4 20.5 20.6 20.7 20.8 21.0 21.2 21.6 22.0 22.3 22.5 23.4 25.5 26.9 27.9 46.9 135.5 20.0 20.0 20.0 20.1 20.1 20.2 20.2 20.3 20.3 20.4 20.5 20.6 20.6 20.8 20.9 21.2 21.9 22.4 22.7 22.9 23.7 25.0 26.3 28.8 59.0 169.8 20.0 20.0 20.1 20.1 20.1 20.2 20.2 20.3 20.3 20.4 20.5 20.6 20.7 20.8 20.9 21.2 21.8 22.4 22.7 22.9 23.3 24.1 26.2 32.4 79.8 179.6 20.0 20.0 20.1 20.1 20.2 20.2 20.2 20.3 20.3 20.4 20.5 20.6 20.7 20.8 21.0 21.2 21.5 21.9 22.2 22.4 22.8 23.2 25.4 36.3 71.6 118.9 20.0 20.0 20.1 20.1 20.2 20.3 20.3 20.4 20.4 20.5 20.6 20.6 20.7 20.9 21.0 21.1 21.3 21.5 21.7 22.0 22.2 22.4 23.9 36.6 55.4 64.8 20.0 20.0 20.1 20.2 20.2 20.3 20.3 20.4 20.4 20.5 20.6 20.6 20.7 20.8 20.9 21.0 21.1 21.3 21.4 21.6 21.8 22.1 22.7 29.8 44.3 42.6 20.1 20.1 20.1 20.0 20.0 20.0 20.0 20.0 20.0 20.0 20.0 20.0 20.0 20.0 20.0 20.0 20.0 20.0 20.0 20.0 20.0 20.0 20.0 20.0 20.0 20.0 20.1 20.1 20.1 20.1 20.1 20.1 20.1 20.1 20.1 20.1 20.0 20.0 20.0 20.0 20.0 20.0 20.0 20.0 20.0 20.0 20.0 20.0 20.0 20.1 20.1 20.1 20.1 20.1 20.1 20.1 20.1 20.1 20.1 20.1 20.1 20.1 20.1 20.1 20.1 20.1 20.1 20.1 20.1 20.1 20.1 20.1 20.1 20.1 20.1 20.1 20.1 20.1 20.0 20.1 20.1 20.1 20.1 20.1 20.1 20.2 20.2 20.2 20.2 20.2 20.2 20.2 20.2 20.2 20.2 20.2 20.2 20.2 20.2 20.2 20.2 20.2 20.2 20.2 20.0 20.1 20.1 20.1 20.1 20.2 20.2 20.2 20.2 20.2 20.2 20.2 20.2 20.3 20.3 20.3 20.3 20.3 20.3 20.3 20.3 20.3 20.3 20.3 20.3 20.3 20.0 20.1 20.1 20.1 20.1 20.2 20.2 20.2 20.2 20.2 20.2 20.3 20.3 20.3 20.3 20.3 20.3 20.4 20.4 20.4 20.4 20.4 20.4 20.4 20.4 20.5 20.0 20.1 20.1 20.1 20.2 20.2 20.2 20.2 20.2 20.2 20.3 20.3 20.3 20.3 20.3 20.4 20.4 20.4 20.4 20.5 20.5 20.5 20.5 20.5 20.6 20.6 20.0 20.1 20.1 20.1 20.2 20.2 20.2 20.2 20.2 20.3 20.3 20.3 20.3 20.3 20.4 20.4 20.4 20.5 20.5 20.5 20.5 20.6 20.6 20.6 20.7 20.8 20.0 20.0 20.1 20.1 20.2 20.2 20.2 20.2 20.2 20.3 20.3 20.3 20.3 20.4 20.4 20.4 20.4 20.5 20.5 20.5 20.6 20.6 20.7 20.7 20.8 20.9 20.0 20.0 20.1 20.1 20.2 20.2 20.2 20.2 20.3 20.3 20.3 20.3 20.4 20.4 20.4 20.4 20.5 20.5 20.5 20.6 20.6 20.7 20.7 20.8 20.9 21.0 20.0 20.0 20.1 20.1 20.2 20.2 20.2 20.3 20.3 20.3 20.3 20.4 20.4 20.4 20.4 20.5 20.5 20.5 20.6 20.6 20.7 20.7 20.8 20.9 21.0 21.1 20.0 20.0 20.1 20.1 20.2 20.2 20.2 20.3 20.3 20.3 20.3 20.4 20.4 20.4 20.5 20.5 20.5 20.6 20.6 20.7 20.7 20.8 20.9 21.0 21.1 21.3 20.0 20.0 20.1 20.1 20.2 20.2 20.2 20.3 20.3 20.3 20.4 20.4 20.4 20.5 20.5 20.5 20.6 20.6 20.7 20.7 20.8 20.9 21.0 21.1 21.3 21.5 20.0 20.0 20.1 20.1 20.2 20.2 20.2 20.3 20.3 20.3 20.4 20.4 20.4 20.5 20.5 20.6 20.6 20.7 20.7 20.8 20.9 21.0 21.1 21.2 21.4 21.6 20.0 20.0 20.1 20.1 20.2 20.2 20.2 20.3 20.3 20.3 20.4 20.4 20.4 20.5 20.5 20.6 20.7 20.7 20.8 20.9 21.0 21.1 21.2 21.4 21.6 21.9 20.0 20.0 20.1 20.1 20.2 20.2 20.3 20.3 20.3 20.3 20.4 