<?xml version="1.0"?>
<VTKFile type="PolyData" version="1.0" byte_order="LittleEndian" header_type="UInt64">
<PolyData>
<Piece NumberOfPoints="72" NumberOfVerts="0" NumberOfLines="0" NumberOfPolys="0">
    <Points>
        <DataArray type="Float32" NumberOfComponents="3" format="ascii">
        12.9493 17.3176 5.5356 13.5779 15.8193 3.2312 10.7368 16.7896 6.0701 11.7164 16.3764 6.5531 12.8404 15.1961 3.2083 12.2835 15.5014 4.1892 13.6618 15.6142 3.5134 12.9548 15.6702 4.0429 10.6515 16.6870 6.9753 14.6487 15.7128 8.3940 11.8459 15.6165 5.3287 11.3912 16.1182 7.4063 14.3009 15.4529 8.3940 8.6987 15.0523 5.7831 11.7434 15.5598 5.8210 12.5566 15.3027 4.9414 11.6625 16.1349 6.2579 12.2850 16.0127 5.0128 14.0966 17.7826 6.3414 14.7592 15.3380 8.3940 14.4263 17.3343 5.8658 9.7045 15.3080 7.4090 14.2859 17.1965 5.9327 14.1850 17.2229 5.9491 12.3545 18.6390 7.3241 14.7154 15.3325 8.3940 12.9980 17.6736 7.3276 12.4522 18.0856 7.4067 13.9029 16.6860 6.4825 14.3653 18.2586 5.9310 14.4028 19.6941 6.6369 14.5625 15.9271 5.2020 14.5993 16.0771 5.0386 13.8495 17.8993 6.5066 14.1160 16.1250 5.3231 13.9859 17.1871 6.5257 14.0604 18.8606 6.4366 11.0351 16.3951 7.3509 11.8343 16.9565 7.3165 12.8001 17.4433 7.4174 14.2948 17.3011 6.4099 13.8869 17.7688 7.0723 12.8409 17.8427 7.4853 13.6845 18.0884 7.0274 13.5961 18.2477 6.7900 13.6740 21.9223 7.7704 13.6294 18.4151 6.6651 8.1796 16.9911 7.6123 11.4869 18.0920 7.5843 12.1390 17.2598 7.3511 11.7823 17.3016 7.3932 10.7239 19.0530 7.9195 13.6255 16.1413 5.2847 13.2863 16.8912 6.4061 11.8016 17.4053 7.4215 13.6380 16.5436 5.8691 11.9028 15.6728 6.5424 13.6684 16.0717 5.4627 12.0513 19.6618 7.9802 14.0364 15.8976 6.1414 11.5924 17.2156 7.4286 12.3324 16.1727 6.5666 12.7299 17.2857 7.4274 12.2337 17.1715 7.3784 11.9143 15.4034 6.2917 12.3575 16.5701 7.1938 13.8336 16.8939 6.8508 12.9904 15.5936 5.2757 12.5502 16.2768 6.4061 14.7671 15.2125 8.3940 12.7099 16.4458 6.6067 12.2359 15.8261 6.5590 
        </DataArray>
    </Points>
    <PointData>
        <DataArray type="Float32" Name="tag" format="ascii">
            480803.0000 475611.0000 469711.0000 490367.0000 469715.0000 473143.0000 482547.0000 481243.0000 477823.0000 64607.0000 486263.0000 488383.0000 54415.0000 469455.0000 495715.0000 490383.0000 492283.0000 493483.0000 558007.0000 90303.0000 547515.0000 485979.0000 534471.0000 543887.0000 567411.0000 90283.0000 544379.0000 566055.0000 575703.0000 561903.0000 561419.0000 549023.0000 539559.0000 563451.0000 550267.0000 534595.0000 557927.0000 504287.0000 549243.0000 560223.0000 561695.0000 572027.0000 572519.0000 572295.0000 568523.0000 551043.0000 567211.0000 498603.0000 561623.0000 552051.0000 562283.0000 568967.0000 558427.0000 555683.0000 567059.0000 567127.0000 537715.0000 461735.0000 578643.0000 571883.0000 545279.0000 563899.0000 563987.0000 571843.0000 541235.0000 572547.0000 576839.0000 552079.0000 574183.0000 115923.0000 576767.0000 497371.0000 
         </DataArray>
    </PointData>
</Piece>
</PolyData>
</VTKFile>