<?xml version="1.0"?>
<VTKFile type="PolyData" version="1.0" byte_order="LittleEndian" header_type="UInt64">
<PolyData>
<Piece NumberOfPoints="3211" NumberOfVerts="0" NumberOfLines="0" NumberOfPolys="0">
    <Points>
        <DataArray type="Float32" NumberOfComponents="3" format="ascii">
        15.9191 7.4346 2.6519 18.5965 10.4736 2.6106 18.6040 10.4211 2.6031 18.8658 11.7401 1.8415 18.7933 10.8158 2.2809 16.8493 8.9902 1.1476 16.5590 9.1103 0.9890 17.4295 9.4581 2.4500 18.7696 11.2825 1.5915 18.7199 11.0599 2.0966 16.7880 9.0054 2.6368 19.0664 11.5478 1.3786 16.9751 9.5019 1.6457 18.9269 11.6686 1.6909 19.0153 11.5445 1.1242 16.7338 8.9450 0.9045 16.3575 7.7508 2.5688 17.1673 8.7363 2.2219 16.0926 8.9476 1.6406 17.3759 6.7616 2.1546 17.1614 4.8355 5.5469 18.9758 10.3772 2.2313 17.2170 6.5509 2.7813 15.6974 8.5411 2.7380 19.0780 11.4394 1.2275 19.0556 10.2295 2.1515 16.5674 7.6428 2.7365 18.5429 10.2371 2.6642 18.4982 10.5232 2.7089 16.6210 7.2018 3.1748 18.9670 10.3841 2.2401 19.0060 11.4783 1.3474 15.4882 7.8968 4.0858 18.8149 11.5547 1.7826 18.2034 10.0000 2.9471 15.4825 9.1706 2.4759 17.9723 10.2001 3.2348 15.4403 10.0000 1.9445 18.3486 10.3759 2.8585 15.4187 9.3961 3.5119 16.1396 10.3223 1.3621 18.0578 10.2114 3.1493 18.3803 10.3197 2.8268 15.6627 10.6710 4.8732 18.4223 10.5450 2.7848 17.8392 10.3117 3.3679 18.1922 10.1938 3.0149 19.0191 11.8028 1.8438 17.8964 10.2708 3.3108 18.5004 10.4643 2.7067 17.7161 10.2402 3.4910 18.5211 10.3699 2.6860 15.1443 9.4724 4.7697 17.9235 10.1498 3.2836 18.1490 10.4190 3.0581 18.2049 10.4227 3.0022 15.4203 10.1276 5.4612 18.8219 10.3664 2.3852 18.5378 10.5315 2.6693 18.7851 11.4363 1.6581 15.5660 10.0000 2.5588 18.9959 10.2477 2.2112 18.2726 10.4186 2.9346 18.1928 10.4788 3.0143 18.7048 10.3687 2.5023 15.5297 10.0000 2.7046 15.4379 10.0000 1.7485 18.7889 11.4615 1.6976 16.1017 10.2099 1.1490 15.0391 9.5945 1.7261 18.7344 11.0247 1.8806 18.7372 11.1096 1.7890 18.7299 11.0957 1.8754 18.8021 10.3952 2.4050 18.7523 11.2469 1.6333 18.9696 11.5248 1.4925 15.7042 9.7936 2.7473 15.4607 10.0000 1.6777 18.9331 11.4684 1.3258 18.9895 10.2346 2.2176 18.9997 11.3095 1.0994 18.6754 11.2006 2.3008 18.7855 10.4414 2.4216 18.6533 10.2574 2.5538 19.1566 11.3784 1.3867 18.9938 11.3655 1.0995 18.7983 10.6959 2.4088 18.7302 11.3407 1.8618 16.0675 9.1655 1.7177 18.9036 11.3285 0.9352 18.7018 10.7638 2.5053 18.7382 11.3832 1.8985 18.6549 10.6538 2.5522 18.9152 11.4105 0.8880 15.0533 7.4286 3.8653 18.7623 11.0664 1.4996 18.7202 11.0753 2.0236 16.1338 7.9171 1.2090 15.8769 7.5513 1.9234 16.4113 6.1955 3.8462 18.5238 10.7251 2.6833 16.2831 7.3752 0.9005 16.1481 6.3437 2.9233 18.7676 10.6156 2.4395 17.0447 6.0072 1.9677 15.9973 6.7029 2.1458 18.1996 10.0000 2.2193 15.7485 6.1738 2.2600 18.7658 10.4728 2.4413 18.1976 11.3246 3.0095 16.1390 0.5166 6.3413 15.2914 4.6800 4.0089 18.4340 10.7023 2.7731 18.7770 10.6119 2.4301 18.4065 10.7297 2.8006 17.9990 10.0000 0.7844 16.6907 4.6658 3.0041 18.1820 11.3325 3.0251 18.7102 11.0582 2.1020 16.6073 7.0755 2.9844 18.9277 10.2310 2.2794 17.0499 3.4225 4.1384 18.4569 10.6047 2.7503 18.1999 10.8546 3.0072 17.7535 10.2983 3.4536 16.7056 8.8170 2.2006 18.2962 10.3121 2.9109 18.2030 10.3868 3.0041 18.5158 10.5301 2.6913 17.2278 8.9027 1.9935 18.1519 11.1184 3.0552 16.8020 9.1441 1.6595 17.9967 10.0000 0.7692 17.7643 10.9707 3.4428 18.2038 10.0000 2.3086 18.8775 10.2906 2.3296 17.3495 9.0153 1.2178 16.8499 8.5573 2.5793 16.6763 8.4303 2.8869 17.6109 10.2575 3.5962 17.0403 8.6043 2.2042 16.3991 7.9216 3.7315 18.4236 10.5128 2.7835 16.3860 7.8353 3.3066 18.6272 8.0214 3.0942 18.5174 9.5654 3.2478 18.0593 11.0037 3.1478 18.3350 9.2551 3.8728 18.8809 8.4359 3.5908 18.7231 7.5869 3.7604 21.0065 4.1271 6.2335 18.7345 10.4517 2.4726 18.2011 11.0490 3.0060 17.0214 8.2241 1.5823 17.9020 10.9902 3.3051 18.9542 11.6089 1.6859 18.0736 11.1696 3.1335 18.1177 10.8514 3.0894 17.0309 8.7994 1.5504 18.4460 10.7200 2.7611 17.2293 9.1513 1.6761 16.1140 6.9227 4.9419 18.3930 10.3599 2.8141 17.9131 10.5519 3.2940 17.1865 8.5677 2.2677 16.7619 8.8134 1.5823 16.0649 7.2964 4.7237 17.7111 11.1628 3.4960 18.2177 10.7027 2.9894 17.8370 11.4225 8.3940 16.5823 8.0298 3.2234 16.7278 8.7567 1.6834 16.1674 14.0588 8.3940 16.6951 9.0269 1.4004 18.8447 10.5576 2.3525 17.7898 10.6584 3.4173 17.9131 11.6952 8.3940 16.1142 7.0456 4.6901 16.4805 8.0914 2.2016 18.1787 10.8610 3.0285 16.2891 7.5555 3.9218 17.8753 10.8567 3.3319 18.3441 10.6715 2.8630 16.9366 6.8577 4.5706 16.8057 7.9353 2.8677 16.8402 8.5169 1.2995 16.8697 8.5663 1.5079 18.7744 10.6695 2.4327 17.9195 10.9831 3.2876 16.3375 8.7108 2.7163 18.3695 10.7951 2.8376 17.1034 8.2580 1.3188 18.6003 10.7738 2.6068 17.9895 10.5528 3.2176 18.1697 11.3954 3.0374 18.7492 10.9083 2.0501 17.7236 13.6348 8.3940 17.9849 13.7327 8.3940 17.9521 13.6945 8.3940 15.6450 13.9628 8.3940 17.8216 8.6183 1.5665 17.3003 7.5677 2.6875 17.7276 9.2470 1.4225 16.8703 7.3965 1.9416 17.3340 11.2103 8.3940 18.2137 10.8416 2.9934 17.7148 7.9941 2.8901 17.2360 7.5609 2.0191 16.8773 3.8065 6.2173 18.0486 11.0164 3.1585 17.8543 10.5827 3.3528 17.3013 7.6277 1.4330 18.1367 12.8796 8.3940 18.0353 10.7721 3.1718 18.1648 7.8128 2.7090 18.1153 11.1601 3.0919 17.7064 13.5579 8.3940 18.2036 11.2855 3.0035 17.6117 6.1518 5.5890 18.0510 10.1307 1.6928 18.3727 10.7734 2.8344 17.7040 13.9045 8.3940 15.4815 13.7528 8.3940 18.6337 7.6691 1.6748 18.1101 6.4891 4.8209 18.7209 7.3827 3.7257 17.9271 11.1446 3.2800 19.3586 5.5362 5.0861 17.3898 10.9888 8.3940 18.0767 11.0332 3.1304 18.7342 11.3236 1.8538 18.7999 10.7562 2.3973 17.9412 11.2515 3.2659 17.9494 11.0064 3.2577 17.9971 10.0000 1.3727 18.7491 7.2641 2.8305 19.5804 5.2020 5.5078 18.7671 10.4010 2.4400 18.5646 9.1981 2.0671 17.7950 10.7715 3.4121 18.2275 12.4869 8.3940 18.1965 13.4287 8.3940 15.7258 13.4564 8.3940 15.7803 11.2557 8.3940 18.3038 12.5686 8.3940 18.3075 13.0082 8.3940 15.6730 13.9871 8.3940 17.6770 10.7740 3.5301 18.7750 7.5848 3.2147 18.5875 9.2721 2.3222 17.9251 10.8721 3.2820 18.1556 11.0604 3.0515 18.2871 13.1005 8.3940 15.4468 11.3115 8.3940 17.9537 10.9805 3.2534 18.4456 10.3365 3.4934 18.7518 8.5530 2.8602 17.8554 11.3167 3.3517 18.0788 11.1655 3.1283 17.8739 10.5938 3.3333 18.0588 12.0533 8.3940 17.7181 11.4097 8.3940 20.7984 2.7787 7.2872 18.3807 7.6039 4.0220 17.8738 11.2374 3.3333 18.9650 6.9246 4.7393 18.1299 11.0955 3.0772 15.0492 10.1105 3.3055 17.9380 11.1460 3.2692 17.4558 11.1326 3.7513 17.9682 11.2698 3.2389 16.5030 10.0000 2.2578 17.0769 9.7226 2.7841 17.7861 11.1482 3.4210 17.9343 10.6923 3.2728 17.7634 10.9487 3.4437 16.8387 10.0000 3.5491 17.8729 11.0458 3.3342 15.4288 10.5873 4.5857 19.4630 7.4100 5.9008 17.4886 11.1137 3.7185 17.9566 11.3849 3.2505 17.8755 11.1050 3.3316 15.3195 9.2748 1.6233 17.8916 11.0709 3.3155 17.8992 11.0660 3.3079 18.0336 11.2950 3.1735 17.7352 10.4955 3.9958 16.8300 9.9461 2.8291 16.9853 10.7581 4.3498 16.6105 9.4764 4.3699 17.4714 11.3149 8.3940 18.1122 11.3146 3.0949 17.7735 11.1387 3.4336 15.5247 13.5714 8.3940 18.1924 11.1279 3.0147 18.1600 11.0749 3.0472 18.4746 10.4271 3.9619 17.4469 11.2405 4.6447 17.6376 10.4025 3.5695 17.9993 10.7286 3.2078 17.8396 10.9825 3.3675 18.0897 9.7007 3.0475 16.6493 11.1530 8.3940 15.8341 11.0896 8.3940 16.7066 11.0356 8.3940 18.8530 6.9917 5.9950 17.8290 11.2922 3.3781 18.5293 9.0068 4.6182 17.9275 10.9030 3.2796 16.8691 11.9798 4.3380 16.0326 11.3491 8.3940 18.0377 13.4910 8.3940 15.2942 10.0000 3.4439 17.8921 11.2957 3.3150 16.5905 14.1235 8.3940 17.2991 13.7321 8.3940 15.1654 10.0000 2.6082 17.8671 10.9748 3.3401 15.4415 10.0000 3.4024 18.5716 7.0265 6.7365 16.7836 14.1750 8.3940 17.0682 13.8663 8.3940 15.7515 8.4840 4.8331 17.9635 10.5800 3.2436 17.7638 11.0994 3.4433 16.4497 10.0000 2.2243 17.1898 10.9601 8.3940 17.3196 10.2783 3.8875 15.5478 11.8457 8.3940 17.8603 11.1209 3.3468 17.9358 11.3563 3.2714 18.8281 6.0833 7.4174 17.2710 10.2425 5.7454 17.9333 11.2974 3.2738 16.6778 10.0000 2.6277 16.1347 11.0935 8.3940 16.0529 11.0534 8.3940 18.0329 11.7187 8.3940 16.6321 10.0000 2.2411 17.7765 11.3498 3.4306 17.8120 10.6721 3.3951 17.7514 10.9501 3.4557 18.3253 4.8639 6.8499 17.7055 10.7997 3.5016 17.8587 11.2286 3.3484 16.5564 10.9481 8.3940 17.6626 11.2995 8.3940 17.1339 11.0704 8.3940 17.6024 11.7002 8.3940 17.9072 11.1000 3.2999 18.2812 12.5134 8.3940 18.2266 11.2635 2.9805 17.1915 10.1216 4.6286 17.8638 11.3338 3.3433 16.0276 10.0000 3.3566 17.3489 10.6075 3.8582 17.2561 11.0916 8.3940 16.2271 11.3468 8.3940 16.7300 14.1621 8.3940 16.2246 14.0883 8.3940 17.8912 12.0534 8.3940 17.5836 11.2969 3.6235 17.8472 11.0197 3.3599 17.5342 7.4990 7.5101 17.5300 10.7939 3.6772 16.8070 9.8968 3.2968 17.2186 10.8390 3.9885 16.5838 10.0000 2.6820 17.0990 11.8715 4.1081 17.4669 11.0126 3.7402 17.3972 10.4851 3.8100 17.9261 12.9512 8.3940 17.3724 13.8544 8.3940 16.4110 10.9785 8.3940 15.4193 13.0237 8.3940 15.3752 10.0000 2.1067 16.0903 10.9809 5.6429 16.7660 8.1032 5.9685 15.0710 10.5511 2.2281 16.5464 11.0266 8.3940 15.4949 13.0330 8.3940 17.3810 9.3792 4.8998 15.2182 10.7600 4.5505 17.7721 10.7696 3.4350 16.8119 10.0000 3.1946 18.2413 11.3875 2.9658 17.0907 13.9928 8.3940 17.9300 11.8110 8.3940 17.6865 10.6534 3.5206 17.2278 9.6367 4.3612 18.0535 11.1647 3.1536 16.1697 13.8346 8.3940 17.9031 11.0621 3.3040 15.5073 9.9629 2.9697 17.7683 10.3729 3.4388 17.6987 11.1821 3.5084 17.8945 11.8434 8.3940 15.5191 9.9614 3.0751 17.4964 10.4918 3.7107 16.2736 10.0000 2.3516 15.3401 12.0944 8.3940 15.3561 13.1851 8.3940 17.2178 10.9627 3.9893 16.2595 8.5134 4.8791 17.9466 11.0900 3.2605 18.0148 13.1400 8.3940 18.1246 12.8753 8.3940 16.1633 11.4687 8.3940 17.1653 14.0062 8.3940 15.4028 11.3091 4.6652 17.4792 11.1746 3.7279 16.8178 13.7304 8.3940 16.9861 11.1786 8.3940 15.1334 10.4379 2.4055 17.8267 11.8458 8.3940 17.7089 11.6330 8.3940 15.4889 13.5835 8.3940 15.0073 10.0000 3.2235 17.4690 10.8574 3.7381 15.1551 10.7146 3.8333 17.3800 10.3429 3.8271 17.9445 10.7862 3.2626 17.6357 10.9121 3.5714 16.7911 10.0000 2.2268 15.3637 9.6185 1.4618 17.3491 10.77
[...]
    <PointData>
        <DataArray type="Float32" Name="tag" format="ascii">
            131.0000 299.0000 739.0000 1131.0000 1567.0000 1791.0000 2035.0000 2191.0000 2391.0000 2475.0000 3271.0000 4395.0000 4643.0000 4891.0000 5299.0000 5643.0000 5703.0000 5815.0000 6911.0000 8263.0000 8603.0000 8815.0000 9027.0000 9407.0000 9459.0000 9751.0000 9963.0000 10155.0000 10279.0000 10311.0000 10495.0000 10531.0000 10611.0000 10763.0000 11351.0000 11427.0000 11439.0000 11759.0000 12011.0000 12211.0000 12279.0000 12395.0000 12411.0000 12631.0000 12719.0000 13023.0000 13083.0000 13119.0000 13875.0000 14087.0000 14151.0000 14179.0000 14215.0000 14255.0000 14327.0000 14491.0000 14763.0000 15083.0000 15971.0000 16811.0000 17007.0000 17231.0000 17235.0000 17919.0000 18279.0000 19547.0000 20267.0000 21147.0000 21671.0000 21751.0000 23339.0000 23367.0000 23731.0000 23847.0000 23951.0000 24743.0000 25151.0000 25303.0000 26175.0000 26207.0000 26959.0000 27967.0000 28923.0000 29639.0000 30023.0000 30379.0000 30395.0000 30863.0000 31915.0000 32111.0000 32255.0000 32943.0000 33435.0000 33563.0000 33583.0000 33943.0000 35675.0000 35715.0000 35779.0000 35963.0000 35995.0000 36711.0000 36935.0000 38247.0000 38399.0000 38523.0000 38535.0000 38591.0000 38627.0000 39147.0000 39383.0000 39655.0000 39943.0000 40335.0000 40439.0000 40727.0000 40963.0000 41231.0000 41515.0000 41567.0000 41699.0000 41895.0000 42015.0000 42139.0000 43367.0000 43467.0000 43535.0000 43903.0000 43959.0000 44151.0000 44331.0000 44539.0000 45039.0000 45371.0000 45395.0000 45827.0000 45887.0000 45931.0000 46091.0000 46347.0000 46351.0000 46683.0000 46735.0000 50003.0000 64467.0000 65415.0000 60363.0000 66307.0000 63635.0000 65379.0000 66299.0000 61283.0000 66283.0000 50895.0000 66279.0000 57147.0000 59607.0000 55207.0000 47019.0000 47043.0000 47191.0000 47311.0000 47347.0000 47411.0000 47419.0000 48003.0000 48039.0000 48219.0000 48255.0000 48363.0000 48551.0000 48791.0000 49155.0000 49507.0000 49643.0000 49771.0000 50039.0000 50047.0000 50059.0000 50063.0000 50311.0000 50415.0000 50675.0000 50735.0000 50815.0000 51007.0000 51087.0000 51271.0000 51291.0000 51799.0000 51815.0000 51891.0000 52835.0000 52923.0000 52931.0000 53131.0000 53515.0000 53535.0000 53539.0000 54415.0000 54827.0000 55015.0000 55039.0000 55143.0000 55283.0000 55411.0000 55623.0000 56031.0000 56307.0000 56467.0000 56535.0000 57063.0000 57183.0000 57487.0000 57787.0000 57847.0000 58003.0000 58143.0000 58471.0000 58527.0000 58607.0000 58875.0000 59667.0000 59923.0000 59927.0000 59947.0000 60063.0000 60495.0000 60563.0000 60671.0000 60675.0000 61407.0000 61627.0000 61659.0000 61847.0000 62139.0000 62419.0000 62431.0000 62527.0000 62599.0000 62951.0000 63815.0000 63855.0000 63911.0000 63927.0000 64587.0000 64607.0000 64683.0000 64803.0000 64811.0000 64835.0000 65163.0000 65551.0000 65579.0000 65927.0000 65975.0000 66003.0000 66075.0000 66179.0000 66423.0000 66439.0000 66479.0000 66523.0000 66703.0000 66707.0000 66955.0000 67087.0000 85919.0000 81631.0000 82479.0000 73803.0000 84147.0000 80691.0000 72223.0000 82451.0000 80683.0000 74655.0000 74635.0000 81515.0000 72203.0000 77203.0000 69439.0000 73731.0000 76311.0000 72179.0000 69415.0000 69411.0000 71559.0000 75571.0000 80583.0000 84911.0000 67267.0000 67687.0000 67715.0000 68047.0000 68295.0000 68487.0000 68511.0000 68587.0000 68607.0000 69067.0000 69187.0000 69471.0000 69479.0000 69487.0000 69491.0000 69651.0000 69879.0000 69995.0000 70255.0000 70659.0000 70879.0000 70911.0000 71147.0000 71271.0000 71579.0000 71627.0000 71799.0000 71815.0000 71955.0000 72047.0000 72307.0000 72331.0000 72379.0000 72523.0000 72547.0000 72607.0000 73115.0000 73623.0000 73947.0000 73999.0000 74051.0000 74099.0000 74259.0000 74367.0000 74723.0000 74755.0000 74783.0000 74839.0000 74859.0000 74915.0000 74955.0000 75075.0000 75171.0000 75267.0000 75379.0000 75595.0000 75631.0000 75651.0000 75683.0000 75711.0000 75719.0000 75987.0000 76459.0000 76739.0000 76995.0000 77059.0000 77315.0000 77351.0000 77383.0000 77399.0000 77451.0000 77459.0000 77515.0000 78003.0000 78239.0000 78451.0000 78543.0000 78643.0000 78867.0000 79503.0000 79527.0000 79911.0000 79967.0000 79999.0000 80051.0000 80091.0000 80435.0000 80563.0000 80799.0000 80831.0000 80843.0000 81035.0000 81147.0000 81175.0000 81243.0000 81379.0000 81735.0000 81759.0000 82155.0000 82235.0000 82299.0000 82543.0000 82699.0000 82731.0000 83019.0000 83143.0000 83415.0000 83623.0000 83867.0000 83987.0000 84295.0000 84435.0000 84607.0000 84667.0000 84823.0000 85127.0000 85171.0000 85227.0000 85251.0000 85379.0000 85487.0000 85955.0000 85959.0000 86035.0000 86047.0000 86067.0000 86071.0000 86155.0000 91619.0000 91603.0000 99303.0000 103835.0000 98515.0000 105527.0000 90835.0000 105495.0000 97147.0000 91539.0000 107171.0000 101007.0000 95203.0000 94547.0000 100103.0000 105467.0000 99215.0000 99207.0000 107127.0000 101803.0000 100059.0000 101779.0000 97675.0000 102771.0000 97051.0000 99107.0000 93675.0000 97047.0000 100175.0000 107059.0000 98371.0000 106195.0000 107015.0000 107011.0000 100855.0000 102715.0000 90747.0000 100839.0000 101699.0000 99959.0000 92235.0000 89959.0000 106139.0000 95751.0000 101679.0000 106127.0000 100807.0000 101959.0000 102899.0000 101655.0000 99935.0000 102635.0000 101607.0000 103515.0000 105207.0000 86863.0000 86895.0000 86915.0000 86931.0000 86979.0000 86999.0000 87075.0000 87139.0000 87807.0000 88039.0000 88083.0000 88195.0000 88559.0000 88663.0000 88727.0000 88823.0000 89095.0000 89423.0000 89475.0000 89511.0000 89719.0000 89731.0000 90231.0000 90283.0000 90287.0000 90303.0000 90331.0000 90363.0000 90383.0000 90899.0000 90915.0000 90963.0000 91307.0000 91723.0000 91771.0000 91823.0000 91843.0000 91967.0000 91979.0000 92115.0000 92143.0000 92415.0000 92515.0000 92599.0000 92615.0000 93151.0000 93203.0000 93219.0000 93343.0000 93515.0000 93959.0000 93983.0000 94071.0000 94087.0000 94103.0000 94207.0000 94379.0000 94623.0000 94639.0000 94643.0000 94655.0000 94791.0000 95035.0000 95295.0000 95307.0000 95339.0000 95419.0000 95427.0000 95503.0000 95515.0000 95675.0000 95947.0000 96019.0000 96055.0000 96239.0000 96555.0000 96571.0000 96635.0000 96643.0000 96667.0000 96679.0000 96695.0000 96703.0000 96747.0000 96755.0000 96771.0000 96891.0000 97291.0000 97403.0000 97487.0000 97491.0000 97871.0000 97887.0000 97919.0000 97923.0000 97927.0000 97939.0000 98015.0000 98019.0000 98191.0000 98599.0000 98615.0000 98671.0000 98675.0000 98719.0000 98767.0000 98847.0000 98879.0000 98943.0000 99323.0000 99327.0000 99611.0000 99615.0000 99647.0000 100215.0000 100251.0000 100295.0000 100303.0000 100319.0000 100331.0000 100383.0000 100427.0000 100463.0000 100479.0000 100703.0000 101067.0000 101083.0000 101099.0000 101127.0000 101167.0000 101195.0000 101199.0000 101203.0000 101279.0000 101495.0000 101991.0000 102159.0000 102207.0000 102287.0000 102335.0000 102411.0000 102995.0000 103019.0000 103031.0000 103039.0000 103075.0000 103175.0000 103331.0000 103407.0000 103427.0000 103435.0000 103475.0000 103955.0000 103959.0000 104007.0000 104047.0000 104059.0000 104063.0000 104091.0000 104115.0000 104159.0000 104183.0000 104215.0000 104227.0000 104315.0000 104763.0000 104843.0000 104891.0000 104903.0000 104915.0000 104923.0000 104935.0000 104943.0000 104979.0000 105603.0000 105639.0000 105775.0000 105795.0000 105807.0000 105843.0000 105999.0000 106419.0000 106487.0000 106531.0000 106583.0000 106639.0000 106667.0000 106683.0000 106723.0000 106835.0000 120087.0000 115571.0000 118583.0000 110443.0000 121587.0000 120071.0000 121423.0000 119863.0000 109655.0000 116319.0000 122951.0000 113115.0000 117623.0000 121583.0000 120615.0000 123667.0000 120599.0000 111431.0000 122139.0000 109559.0000 116047.0000 115271.0000 121359.0000 113739.0000 124379.0000 110339.0000 119071.0000 111139.0000 112811.0000 111951.0000 112803.0000 109511.0000 117011.0000 111947.0000 120551.0000 109731.0000 111415.0000 112259.0000 113939.0000 124359.0000 125135.0000 111103.0000 111923.0000 111919.0000 116015.0000 112767.0000 111903.0000 112759.0000 107835.0000 125383.0000 112751.0000 124351.0000 116259.0000 126831.0000 118519.0000 121303.0000 107815.0000 120519.0000 125099.0000 111871.0000 120011.0000 119003.0000 126815.0000 111067.0000 114407.0000 123519.0000 118179.0000 124311.0000 114759.0000 118167.0000 116599.0000 110227.0000 115931.0000 124287.0000 125959.0000 115923.0000 115919.0000 125063.0000 119699.0000 114371.0000 121203.0000 120467.0000 125051.0000 121187.0000 120463.0000 108571.0000 111023.0000 118131.0000 113603.0000 110191.0000 121167.0000 118935.0000 119659.0000 123451.0000 112655.0000 122775.0000 117423.0000 118927.0000 119647.0000 116519.0000 117415.0000 118115.0000 112647.0000 121143.0000 121127.0000 124231.0000 123435.0000 118095.0000 109383.0000 111003.0000 122731.0000 124199.0000 119615.0000 109379.0000 118079.0000 118075.0000 126675.0000 118879.0000 114323.0000 118871.0000 118867.0000 123399.0000 124183.0000 124927.0000 124179.0000 118859.0000 112591.0000 109351.0000 112587.0000 122671.0000 115831.0000 118847.0000 118843.0000 114291.0000 110967.0000 112571.0000 122639.0000 118039.0000 111719.0000 126603.0000 112551.0000 115027.0000 120331.0000 122635.0000 118835.0000 124887.0000 109327.0000 121079.0000 125775.0000 125771.0000 125767.0000 111675.0000 119515.0000 118803.0000 118011.0000 122615.0000 126559.0000 125743.0000 120291.0000 125739.0000 124535.0000 126535.0000 118779.0000 124087.0000 121507.0000 108855.0000 122259.0000 116187.0000 113883.0000 118447.0000 117719.0000 115399.0000 116919.0000 109679.0000 122999.0000 118419.0000 116143.0000 126155.0000 123747.0000 119191.0000 119179.0000 126975.0000 111295.0000 122223.0000 125299.0000 107263.0000 107295.0000 107339.0000 107391.0000 107423.0000 107483.0000 107555.0000 108091.0000 108099.0000 108195.0000 108203.0000 108231.0000 108251.0000 108255.0000 108371.0000 108451.0000 108459.0000 109031.0000 109035.0000 109119.0000 109151.0000 109191.0000 109275.0000 109287.0000 109791.0000 109855.0000 109911.0000 109983.0000 110667.0000 110691.0000 110759.0000 110803.0000 110831.0000 110883.0000 110899.0000 110903.0000 111467.0000 111475.0000 111503.0000 111515.0000 111607.0000 111623.0000 111655.0000 112371.0000 113155.0000 113203.0000 113299.0000 113419.0000 113447.0000 113483.0000 113487.0000 114039.0000 114087.0000 114099.0000 114243.0000 114895.0000 114915.0000 114927.0000 114943.0000 114991.0000 115667.0000 115767.0000 116331.0000 116371.0000 116391.0000 116419.0000 117167.0000 117175.0000 117311.0000 117855.0000 117891.0000 117967.0000 118591.0000 118611.0000 118667.0000 118719.0000 118739.0000 119343.0000 119419.0000 119447.0000 120111.0000 120135.0000 120151.0000 120183.0000 120243.0000 120251.0000 120883.0000 121031.0000 121611.0000 121643.0000 121651.0000 121679.0000 121719.0000 121743.0000 122375.0000 122479.0000 122503.0000 122539.0000 123099.0000 123127.0000 123131.0000 123159.0000 123175.0000 123203.0000 123215.0000 123219.0000 123227.0000 123259.0000 123283.0000 123939.0000 124015.0000 124043.0000 124659.0000 124663.0000 124715.0000 124735.0000 124743.0000 124747.0000 124791.0000 124799.0000 124807.0000 124823.0000 125439.0000 125483.0000 125547.0000 125603.0000 125655.0000 125675.0000 126351.0000 126383.0000 126427.0000 126443.0000 126471.0000 126479.0000 140835.0000 137607.0000 127907.0000 137603.0000 146967.0000 139287.0000 136687.0000 127759.0000 135659.0000 134759.0000 140819.0000 129559.0000 130243.0000 136563.0000 133951.0000 132915.0000 128611.0000 135619.0000 131191.0000 131959.0000 139195.0000 128591.0000 130379.0000 146823.0000 130987.0000 130215.0000 130983.0000 145879.0000 130207.0000 135751.0000 130971.0000 130195.0000 128563.0000 127731.0000 135591.0000 129547.0000 136515.0000 140795.0000 132075.0000 133731.0000 128547.0000 136511.0000 134667.0000 146927.0000 137411.0000 133927.0000 142315.0000 146923.0000 142311.0000 130175.0000 146759.0000 129335.0000 130935.0000 128699.0000 138479.0000 140603.0000 135507.0000 131899.0000 128691.0000 131159.0000 136479.0000 131151.0000 128515.0000 145047.0000 132851.0000 138307.0000 135715.0000 145815.0000 133675.0000 131131.0000 135499.0000 127659.0000 138447.0000 146735.0000 127639.0000 143111.0000 130907.0000 146903.0000 143235.0000 134603.0000 145019.0000 139247.0000 130883.0000 140571.0000 136431.0000 129239.0000 132787.0000 137515.0000 129223.0000 130847.0000 145763.0000 136411.0000 130819.0000 130079.0000 131807.0000 129175.0000 134535.0000 140543.0000 136387.0000 129151.0000 129147.0000 132715.0000 134499.0000 130015.0000 133555.0000 140515.0000 127495.0000 135355.0000 132699.0000 139783.0000 128347.0000 128339.0000 134463.0000 135331.0000 136319.0000 134455.0000 132687.0000 133495.0000 129071.0000 134423.0000 127443.0000 134395.0000 133483.0000 141259.0000 137295.0000 143831.0000 144999.0000 140455.0000 146619.0000 135283.0000 142159.0000 140451.0000 146611.0000 129943.0000 132643.0000 143815.0000 129935.0000 135259.0000 131651.0000 129919.0000 127395.0000 130631.0000 145639.0000 130603.0000 139651.0000 139647.0000 142919.0000 140407.0000 129891.0000 145607.0000 143759.0000 134283.0000 146567.0000 132555.0000 140379.0000 136211.0000 131583.0000 142091.0000 142891.0000 129007.0000 130567.0000 138051.0000 143731.0000 129859.0000 145547.0000 142859.0000 134259.0000 132507.0000 128979.0000 142823.0000 135139.0000 139583.0000 146515.0000 128967.0000 140323.0000 138895.0000 129495.0000 145479.0000 140307.0000 145475.0000 131543.0000 142775.0000 137135.0000 127299.0000 141115.0000 140303.0000 136147.0000 136143.0000 142003.0000 138007.0000 145459.0000 136135.0000 138855.0000 130495.0000 144575.0000 133359.0000 135675.0000 144563.0000 144051.0000 145431.0000 145927.0000 130275.0000 144551.0000 132019.0000 127103.0000 127123.0000 127175.0000 127255.0000 127259.0000 128059.0000 128067.0000 128115.0000 128795.0000 128847.0000 129579.0000 129623.0000 129687.0000 129799.0000 130475.0000 131275.0000 131279.0000 131391.0000 131415.0000 132187.0000 132207.0000 132211.0000 132291.0000 132307.0000 132423.0000 132439.0000 133063.0000 133111.0000 133123.0000 133211.0000 133243.0000 133275.0000 133339.0000 134055.0000 134059.0000 134067.0000 134119.0000 134147.0000 134151.0000 134899.0000 134919.0000 134923.0000 134927.0000 134947.0000 134991.0000 135011.0000 135787.0000 135835.0000 135839.0000 135891.0000 135987.0000 135999.0000 136003.0000 136007.0000 136027.0000 136055.0000 136087.0000 136103.0000 136727.0000 136755.0000 136935.0000 136943.0000 137687.0000 137691.0000 137727.0000 137771.0000 137843.0000 137867.0000 137903.0000 137975.0000 138547.0000 138643.0000 138683.0000 138703.0000 138711.0000 138751.0000 138787.0000 138791.0000 138839.0000 139367.0000 139395.0000 139463.0000 139491.0000 140103.0000 140123.0000 140147.0000 140171.0000 140839.0000 140879.0000 140919.0000 140943.0000 141047.0000 141631.0000 141643.0000 141659.0000 141715.0000 141763.0000 141775.0000 141819.0000 141823.0000 141855.0000 141867.0000 141879.0000 142507.0000 142535.0000 142631.0000 142691.0000 142727.0000 143375.0000 143455.0000 143511.0000 143539.0000 143583.0000 143635.0000 143639.0000 144255.0000 144259.0000 144311.0000 144415.0000 144479.0000 144519.0000 145183.0000 145187.0000 145287.0000 145295.0000 145315.0000 145363.0000 146107.0000 146147.0000 146167.0000 146191.0000 146207.0000 146211.0000 146247.0000 146251.0000 146271.0000 146323.0000 146419.0000 166627.0000 173343.0000 160919.0000 164647.0000 152583.0000 164643.0000 166619.0000 150699.0000 152579.0000 151543.0000 168359.0000 168351.0000 159119.0000 164599.0000 160863.0000 159015.0000 159931.0000 153407.0000 153403.0000 147891.0000 160855.0000 156203.0000 150603.0000 147731.0000 171651.0000 162703.0000 147719.0000 171647.0000 160827.0000 160823.0000 168315.0000 169907.0000 173223.0000 148803.0000 162815.0000 158007.0000 160967.0000 147839.0000 155195.0000 152375.0000 158939.0000 159883.0000 154411.0000 168271.0000 160023.0000 156275.0000 150655.0000 149743.0000 155343.0000 157211.0000 154255.0000 147819.0000 157959.0000 151427.0000 149723.0000 154239.0000 162635.0000 166543.0000 150499.0000 151403.0000 168231.0000 171607.0000 157071.0000 147639.0000 152491.0000 166319.0000 171579.0000 160715.0000 148563.0000 154171.0000 159807.0000 166259.0000 171559.0000 151271.0000 151259.0000 153207.0000 152251.0000 166239.0000 149479.0000 152239.0000 157871.0000 148495.0000 160659.0000 152223.0000 151211.0000 148479.0000 152203.0000 168163.0000 164343.0000 155035.0000 159719.0000 156943.0000 157803.0000 168115.0000 155915.0000 149359.0000 149355.0000 151151.0000 155899.0000 156931.0000 150643.0000 156915.0000 147795.0000 151135.0000 152151.0000 156903.0000 169755.0000 158735.0000 168099.0000 147383.0000 158719.0000 160579.0000 149283.0000 168091.0000 171451.0000 150235.0000 150227.0000 151103.0000 160567.0000 160563.0000 152115.0000 173011.0000 154891.0000 156843.0000 169699.0000 150207.0000 153015.0000 171395.0000 157683.0000 160535.0000 166119.0000 147339.0000 171391.0000 148327.0000 164215.0000 162375.0000 162371.0000 158675.0000 149227.0000 154871.0000 152995.0000 152103.0000 158667.0000 158663.0000 160507.0000 151079.0000 166099.0000 152099.0000 160503.0000 154863.0000 166095.0000 162339.0000 160491.0000 166503.0000 170075.0000 147015.0000 147059.0000 147103.0000 147143.0000 147203.0000 147211.0000 147219.0000 147223.0000 147235.0000 147239.0000 147283.0000 147287.0000 147983.0000 148051.0000 148067.0000 148199.0000 148271.0000 148275.0000 148867.0000 148995.0000 149003.0000 149087.0000 149103.0000 149111.0000 149131.0000 149179.0000 149219.0000 149851.0000 149903.0000 149959.0000 149983.0000 149991.0000 150019.0000 150079.0000 150867.0000 150879.0000 150911.0000 150923.0000 150935.0000 150975.0000 150999.0000 151003.0000 151699.0000 151723.0000 151823.0000 151839.0000 151935.0000 151963.0000 151971.0000 151983.0000 151999.0000 152003.0000 152039.0000 152087.0000 152595.0000 152599.0000 152631.0000 152643.0000 152667.0000 152695.0000 152795.0000 152863.0000 152867.0000 152891.0000 152895.0000 152971.0000 152975.0000 153535.0000 153651.0000 153735.0000 153827.0000 153831.0000 153851.0000 153943.0000 153959.0000 153963.0000 154519.0000 154587.0000 154707.0000 154719.0000 154743.0000 154819.0000 155431.0000 155447.0000 155491.0000 155563.0000 155663.0000 155675.0000 155711.0000 156375.0000 156531.0000 156587.0000 156607.0000 156687.0000 156699.0000 156707.0000 156711.0000 156799.0000 157275.0000 157287.0000 157319.0000 157371.0000 157411.0000 157427.0000 157435.0000 157447.0000 157471.0000 157579.0000 158239.0000 158259.0000 158267.0000 158523.0000 158527.0000 158603.0000 158655.0000 159143.0000 159303.0000 159331.0000 159371.0000 159387.0000 159395.0000 159435.0000 159503.0000 159531.0000 159559.0000 160095.0000 160111.0000 160151.0000 160207.0000 160303.0000 160311.0000 160395.0000 160411.0000 160415.0000 160459.0000 161031.0000 161107.0000 161115.0000 161163.0000 161195.0000 161211.0000 161219.0000 161311.0000 161387.0000 161439.0000 162059.0000 162135.0000 162239.0000 162915.0000 162935.0000 162987.0000 163031.0000 163051.0000 163103.0000 163147.0000 163203.0000 163315.0000 163327.0000 163331.0000 163395.0000 163443.0000 163451.0000 163787.0000 163875.0000 164127.0000 164759.0000 164767.0000 164915.0000 164939.0000 165035.0000 165067.0000 165099.0000 165167.0000 165171.0000 165207.0000 165247.0000 165259.0000 165299.0000 165323.0000 165767.0000 165771.0000 165827.0000 165855.0000 165863.0000 165903.0000 166067.0000 166679.0000 166791.0000 166859.0000 166903.0000 167059.0000 167395.0000 167471.0000 167631.0000 167727.0000 167735.0000 167747.0000 167803.0000 167811.0000 168511.0000 168611.0000 168619.0000 168935.0000 168975.0000 169147.0000 169503.0000 169571.0000 169587.0000 169599.0000 170159.0000 170199.0000 170207.0000 170211.0000 170227.0000 170299.0000 170383.0000 170459.0000 170527.0000 170563.0000 170571.0000 170823.0000 170863.0000 170919.0000 171139.0000 171155.0000 171195.0000 171203.0000 171247.0000