<?xml version="1.0"?>
<VTKFile type="RectilinearGrid" version="1.0" byte_order="LittleEndian" header_type="UInt64">
<RectilinearGrid WholeExtent="25 50 0 25 0 15">
<Piece Extent="25 50 0 25 0 15">
<Coordinates>
<DataArray type="Float64" Name="Array X-Axis" format="ascii" RangeMin="15.0" RangeMax="30.0">
15.0 15.6 16.2 16.8 17.4 18.0 18.6 19.2 19.8 20.4 21.0 21.6 22.2 22.8 23.4 24.0 24.6 25.2 25.8 26.4 27.0 27.6 28.2 28.8 29.4 30.0 
</DataArray>
<DataArray type="Float64" Name="Array Y-Axis" format="ascii" RangeMin="0.0" RangeMax="15.0">
0.0 0.6 1.2 1.8 2.4 3.0 3.6 4.2 4.8 5.4 6.0 6.6 7.2 7.8 8.4 9.0 9.6 10.2 10.8 11.4 12.0 12.6 13.2 13.8 14.4 15.0 
</DataArray>
<DataArray type="Float64" Name="Array Z-Axis" format="ascii" RangeMin="0.0" RangeMax="9.0">
0.0 0.6 1.2 1.8 2.4 3.0 3.6 4.2 4.8 5.4 6.0 6.6 7.2 7.8 8.4 9.0 
</DataArray>
</Coordinates>
<PointData>
<DataArray Name="TEMPERATURE" NumberOfComponents="1" type="Float64" format="ascii">
20.0 20.0 20.0 20.0 20.0 20.0 20.1 20.1 20.1 20.1 20.1 20.0 20.0 20.0 20.0 20.0 20.0 20.0 20.0 20.0 20.0 20.0 20.0 20.0 20.0 20.0 20.1 20.1 20.1 20.1 20.1 20.1 20.1 20.1 20.1 20.1 20.1 20.1 20.1 20.1 20.1 20.1 20.1 20.1 20.1 20.1 20.1 20.1 20.1 20.1 20.1 20.0 20.1 20.1 20.2 20.2 20.2 20.2 20.2 20.2 20.2 20.2 20.2 20.2 20.2 20.1 20.1 20.1 20.1 20.1 20.1 20.1 20.1 20.1 20.1 20.1 20.1 20.0 20.2 20.2 20.3 20.3 20.3 20.3 20.3 20.3 20.3 20.3 20.3 20.2 20.2 20.2 20.2 20.2 20.2 20.2 20.2 20.2 20.2 20.2 20.2 20.2 20.1 20.0 20.3 20.3 20.3 20.4 20.4 20.4 20.4 20.4 20.4 20.4 20.4 20.3 20.3 20.3 20.3 20.3 20.3 20.3 20.3 20.3 20.3 20.3 20.3 20.1 20.1 20.0 20.4 20.4 20.4 20.5 20.5 20.5 20.5 20.5 20.5 20.5 20.5 20.4 20.4 20.4 20.4 20.4 20.4 20.4 20.4 20.4 20.4 20.4 20.2 20.1 20.1 20.0 20.5 20.5 20.6 20.6 20.6 20.6 20.6 20.6 20.7 20.7 20.6 20.5 20.5 20.5 20.5 20.5 20.5 20.5 20.5 20.6 20.5 20.3 20.2 20.1 20.1 20.0 20.6 20.6 20.7 20.7 20.7 20.7 20.7 20.8 20.8 20.8 20.7 20.7 20.6 20.6 20.6 20.6 20.6 20.7 20.7 20.6 20.4 20.3 20.2 20.1 20.1 20.0 20.7 20.8 20.8 20.9 20.9 20.9 20.9 20.9 21.0 21.0 20.9 20.8 20.8 20.7 20.7 20.8 20.8 20.8 20.7 20.5 20.4 20.3 20.2 20.2 20.1 20.0 20.8 20.9 21.0 21.1 21.1 21.1 21.1 21.2 21.2 21.2 21.0 20.9 20.9 20.9 20.9 21.0 21.0 20.9 20.7 20.5 20.4 20.3 20.2 20.2 20.1 20.0 21.0 21.0 21.2 21.3 21.3 21.3 21.3 21.4 21.4 21.3 21.2 21.1 21.1 21.1 21.2 21.2 21.1 20.9 20.7 20.5 20.4 20.3 20.3 20.2 20.1 20.0 21.1 21.2 21.4 21.5 21.6 21.6 21.6 21.6 21.7 21.5 21.4 21.3 21.4 21.4 21.4 21.3 21.0 20.8 20.7 20.6 20.5 20.4 20.3 20.2 20.1 20.0 21.3 21.4 21.6 21.7 21.8 21.9 21.9 22.0 22.0 21.8 21.6 21.6 21.7 21.7 21.5 21.3 21.0 20.8 20.7 20.6 20.5 20.4 20.3 20.2 20.1 20.1 21.5 21.7 21.8 22.0 22.2 22.3 22.4 22.4 22.3 22.1 22.0 22.0 22.0 21.9 21.6 21.3 21.1 20.9 20.8 20.6 20.5 20.4 20.3 20.2 20.1 20.1 21.8 21.9 22.1 22.4 22.6 22.8 22.9 22.8 22.7 22.5 22.5 22.4 22.2 21.9 21.6 21.3 21.1 21.0 20.8 20.7 20.5 20.4 20.3 20.2 20.1 20.1 22.2 22.3 22.5 22.8 23.0 23.3 23.4 23.4 23.3 23.1 23.0 22.7 22.4 21.9 21.6 21.4 21.2 21.0 20.9 20.7 20.6 20.4 20.3 20.2 20.1 20.1 22.6 22.8 23.0 23.3 23.6 23.9 24.1 24.2 24.0 23.8 23.4 22.9 22.4 22.0 21.7 21.5 21.3 21.1 20.9 20.7 20.6 20.5 20.4 20.3 20.1 20.1 23.0 23.3 23.6 24.0 24.5 25.1 25.4 25.3 24.9 24.4 23.8 23.1 22.5 22.1 21.9 21.6 21.4 21.2 21.0 20.8 20.7 20.5 20.4 20.3 20.2 20.1 23.5 23.9 24.4 24.9 25.8 27.1 27.4 26.6 25.7 25.0 24.1 23.3 22.8 22.4 22.1 21.8 21.5 21.3 21.1 20.9 20.8 20.6 20.5 20.3 20.2 20.1 24.1 24.7 25.4 26.8 31.1 35.9 35.4 31.8 28.3 25.8 24.7 23.8 23.2 22.8 22.4 22.0 21.7 21.4 21.2 21.0 20.8 20.7 20.5 20.4 20.2 20.1 25.1 26.0 27.3 30.6 35.9 43.7 42.3 37.1 32.3 27.5 25.8 24.6 23.7 23.2 22.7 22.2 21.8 21.5 21.2 21.0 20.9 20.7 20.5 20.3 20.2 20.1 25.9 27.2 29.0 34.2 38.2 20.0 20.0 36.1 32.9 28.5 26.6 25.1 24.1 23.4 22.8 22.3 21.9 21.6 21.3 21.1 20.9 20.7 20.5 20.3 20.2 20.1 25.7 27.1 28.9 33.5 37.0 20.0 20.0 32.1 30.6 27.8 26.0 24.9 24.1 23.3 22.7 22.2 21.8 21.6 21.3 21.1 20.9 20.7 20.5 20.3 20.2 20.1 25.1 26.1 27.4 30.1 32.4 34.6 37.1 31.8 28.2 26.6 25.1 24.3 23.7 23.0 22.5 22.1 21.8 21.5 21.3 21.1 20.9 20.7 20.5 20.3 20.2 20.1 24.3 25.0 25.7 27.5 29.6 31.7 33.1 29.9 26.2 25.2 24.3 23.7 23.2 22.7 22.3 21.9 21.7 21.5 21.2 21.0 20.8 20.7 20.5 20.3 20.2 20.1 22.8 24.1 24.7 25.7 26.9 27.9 28.3 26.9 25.2 24.3 23.6 23.1 22.7 22.3 22.0 21.7 21.5 21.3 21.1 20.9 20.7 20.6 20.5 20.3 20.1 20.1 20.0 20.0 20.0 20.0 20.0 20.0 20.1 20.1 20.1 20.1 20.0 20.0 20.0 20.0 20.0 20.0 20.0 20.0 20.0 20.0 20.0 20.0 20.0 20.0 20.0 20.0 20.1 20.1 20.1 20.1 20.1 20.1 20.1 20.1 20.1 20.1 20.1 20.1 20.1 20.1 20.1 20.1 20.1 20.1 20.1 20.1 20.1 20.1 20.1 20.1 20.1 20.0 20.1 20.1 20.1 20.2 20.2 20.2 20.2 20.2 20.2 20.2 20.2 20.2 20.1 20.1 20.1 20.1 20.1 20.1 20.1 20.1 20.1 20.1 20.1 20.1 20.1 20.0 20.2 20.2 20.2 20.2 20.3 20.3 20.2 20.3 20.3 20.3 20.3 20.2 20.2 20.2 20.2 20.2 20.2 20.2 20.2 20.2 20.2 20.2 20.2 20.2 20.1 20.0 20.3 20.3 20.3 20.3 20.4 20.3 20.3 20.4 20.4 20.4 20.3 20.3 20.3 20.3 20.3 20.3 20.3 20.3 20.3 20.3 20.3 20.3 20.2 20.1 20.1 20.0 20.4 20.4 20.4 20.5 20.5 20.5 20.4 20.5 20.5 20.5 20.5 20.4 20.4 20.4 20.4 20.3 20.3 20.3 20.4 20.4 20.4 20.3 20.2 20.1 20.1 20.0 20.4 20.5 20.5 20.6 20.6 20.6 20.6 20.6 20.6 20.6 20.6 20.5 20.5 20.5 20.5 20.4 20.5 20.5 20.5 20.6 20.5 20.3 20.2 20.1 20.1 20.0 20.6 20.6 20.7 20.7 20.7 20.7 20.7 20.8 20.8 20.8 20.7 20.6 20.6 20.6 20.6 20.6 20.6 20.7 20.7 20.6 20.4 20.3 20.2 20.1 20.1 20.0 20.7 20.7 20.8 20.9 20.9 20.9 20.9 20.9 21.0 20.9 20.8 20.8 20.7 20.7 20.7 20.8 20.8 20.8 20.7 20.5 20.4 20.3 20.2 20.1 20.1 20.0 20.8 20.9 21.0 21.0 21.1 21.1 21.1 21.2 21.2 21.1 21.0 20.9 20.9 20.9 20.9 21.0 21.0 20.9 20.7 20.5 20.4 20.3 20.2 20.1 20.1 20.0 20.9 21.0 21.1 21.2 21.3 21.3 21.4 21.4 21.4 21.3 21.2 21.1 21.1 21.1 21.2 21.2 21.1 20.9 20.7 20.5 20.4 20.3 20.2 20.2 20.1 20.0 21.1 21.2 21.3 21.5 21.6 21.6 21.6 21.7 21.7 21.5 21.4 21.4 21.4 21.4 21.4 21.3 21.1 20.8 20.7 20.5 20.4 20.3 20.3 20.2 20.1 20.0 21.3 21.4 21.6 21.7 21.9 22.0 22.0 22.0 22.0 21.8 21.7 21.7 21.7 21.7 21.5 21.3 21.0 20.8 20.7 20.6 20.5 20.4 20.3 20.2 20.1 20.0 21.6 21.7 21.8 22.0 22.2 22.4 22.5 22.5 22.3 22.2 22.1 22.1 22.1 21.9 21.6 21.3 21.0 20.9 20.7 20.6 20.5 20.4 20.3 20.2 20.1 20.0 21.9 22.0 22.2 22.4 22.7 22.9 23.0 22.9 22.8 22.6 22.5 22.5 22.3 22.0 21.6 21.3 21.1 20.9 20.8 20.6 20.5 20.4 20.3 20.2 20.1 20.1 22.3 22.4 22.6 22.9 23.2 23.5 23.7 23.7 23.4 23.2 23.1 22.8 22.4 22.0 21.6 21.4 21.2 21.0 20.8 20.7 20.5 20.4 20.3 20.2 20.1 20.1 22.7 22.9 23.2 23.5 23.9 24.4 24.9 24.7 24.2 23.9 23.5 23.0 22.5 22.1 21.7 21.5 21.3 21.1 20.9 20.7 20.6 20.5 20.3 20.2 20.1 20.1 23.1 23.5 23.9 24.3 24.9 25.9 26.5 26.2 25.3 24.6 23.9 23.2 22.7 22.2 21.9 21.6 21.4 21.1 21.0 20.8 20.6 20.5 20.4 20.3 20.1 20.1 23.6 24.1 24.7 25.8 27.0 28.5 29.7 29.1 27.1 25.3 24.3 23.5 22.9 22.5 22.1 21.8 21.5 21.3 21.1 20.9 20.7 20.6 20.4 20.3 20.2 20.1 24.2 25.0 25.9 28.7 34.0 43.8 46.7 38.4 30.6 26.3 24.9 24.1 23.3 22.9 22.4 22.1 21.7 21.4 21.2 21.0 20.8 20.6 20.5 20.3 20.2 20.1 25.1 26.2 28.6 36.1 75.1 170.8 173.4 76.9 35.3 28.3 26.2 24.9 23.9 23.3 22.8 22.3 21.9 21.5 21.2 21.0 20.8 20.7 20.5 20.3 20.2 20.1 26.0 27.5 30.5 43.3 149.2 448.6 416.8 120.8 37.3 29.6 27.0 25.4 24.3 23.6 22.9 22.4 21.9 21.6 21.3 21.0 20.8 20.7 20.5 20.3 20.2 20.1 26.3 27.9 31.2 43.7 129.9 366.6 374.0 124.8 34.2 28.5 26.4 25.2 24.2 23.4 22.8 22.3 21.9 21.6 21.3 21.1 20.9 20.7 20.5 20.3 20.2 20.1 25.5 26.7 29.7 37.1 56.7 105.5 138.2 78.8 29.8 26.8 25.4 24.5 23.8 23.1 22.6 22.1 21.8 21.5 21.3 21.1 20.8 20.7 20.5 20.3 20.2 20.1 24.4 25.1 26.4 29.2 32.2 35.7 41.2 35.8 26.9 25.5 24.5 23.8 23.3 22.7 22.3 21.9 21.7 21.4 21.2 21.0 20.8 20.6 20.5 20.3 20.2 20.1 22.9 24.3 25.0 26.1 27.4 28.7 29.4 27.7 25.6 24.6 23.9 23.3 22.8 22.4 22.0 21.7 21.5 21.3 21.1 20.9 20.7 20.6 20.4 20.3 20.1 20.1 20.0 20.0 20.0 20.0 20.0 20.0 20.0 20.0 20.0 20.0 20.0 20.0 20.0 20.0 20.0 20.0 20.0 20.0 20.0 20.0 20.0 20.0 20.0 20.0 20.0 20.0 20.1 20.1 20.1 20.1 20.1 20.1 20.1 20.1 20.1 20.1 20.1 20.1 20.1 20.1 20.1 20.1 20.1 20.0 20.0 20.0 20.0 20.0 20.1 20.1 20.1 20.0 20.1 20.1 20.1 20.1 20.1 20.1 20.1 20.2 20.2 20.2 20.1 20.1 20.1 20.1 20.1 20.1 20.1 20.1 20.1 20.1 20.1 20.1 20.1 20.1 20.1 20.0 20.2 20.2 20.2 20.2 20.2 20.2 20.2 20.2 20.3 20.2 20.2 20.2 20.2 20.2 20.2 20.2 20.2 20.2 20.1 20.2 20.2 20.2 20.2 20.1 20.1 20.0 20.2 20.3 20.3 20.3 20.3 20.3 20.3 20.3 20.4 20.3 20.3 20.3 20.3 20.2 20.2 20.2 20.2 20.2 20.2 20.3 20.3 20.3 20.2 20.1 20.1 20.0 20.3 20.3 20.4 20.4 20.4 20.4 20.4 20.5 20.5 20.5 20.4 20.4 20.3 20.3 20.3 20.3 20.3 20.3 20.4 20.4 20.4 20.3 20.2 20.1 20.0 20.0 20.4 20.4 20.5 20.5 20.6 20.6 20.6 20.6 20.6 20.6 20.5 20.5 20.4 20.4 20.4 20.4 20.4 20.5 20.5 20.5 20.4 20.3 20.2 20.1 20.0 20.0 20.5 20.6 20.6 20.7 20.7 20.7 20.7 20.7 20.8 20.7 20.6 20.6 20.5 20.5 20.5 20.6 20.6 20.6 20.6 20.5 20.4 20.2 20.2 20.1 20.1 20.0 20.6 20.7 20.8 20.8 20.9 20.9 20.9 21.0 20.9 20.9 20.8 20.7 20.7 20.7 20.7 20.8 20.8 20.8 20.7 20.5 20.3 20.2 20.2 20.1 20.1 20.0 20.8 20.8 20.9 21.0 21.1 21.1 21.2 21.2 21.1 21.1 20.9 20.9 20.9 20.9 20.9 21.0 20.9 20.8 20.6 20.5 20.3 20.2 20.2 20.1 20.1 20.0 20.9 21.0 21.1 21.2 21.3 21.4 21.4 21.4 21.4 21.3 21.2 21.1 21.1 21.2 21.2 21.1 21.0 20.8 20.6 20.5 20.3 20.3 20.2 20.1 20.1 20.0 21.1 21.2 21.3 21.5 21.6 21.7 21.7 21.8 21.7 21.5 21.4 21.4 21.4 21.4 21.4 21.3 21.0 20.8 20.6 20.5 20.4 20.3 20.2 20.1 20.1 20.0 21.3 21.4 21.6 21.8 21.9 22.1 22.2 22.2 22.0 21.9 21.8 21.8 21.8 21.7 21.5 21.3 21.0 20.8 20.6 20.5 20.4 20.3 20.2 20.2 20.1 20.0 21.6 21.7 21.9 22.1 22.4 22.6 22.7 22.6 22.4 22.3 22.2 22.2 22.1 21.9 21.6 21.3 21.0 20.8 20.7 20.6 20.4 20.3 20.2 20.2 20.1 20.0 22.0 22.1 22.3 22.6 22.9 23.2 23.3 23.2 23.0 22.8 22.7 22.6 22.4 22.0 21.7 21.3 21.1 20.9 20.7 20.6 20.5 20.4 20.3 20.2 20.1 20.0 22.4 22.6 22.9 23.2 23.6 24.2 24.6 24.3 23.7 23.4 23.3 23.0 22.5 22.1 21.7 21.4 21.2 21.0 20.8 20.6 20.5 20.4 20.3 20.2 20.1 20.1 22.9 23.1 23.5 24.0 24.7 26.0 27.0 26.2 24.8 24.1 23.8 23.3 22.7 22.2 21.8 21.5 21.2 21.0 20.8 20.7 20.5 20.4 20.3 20.2 20.1 20.1 23.4 23.9 24.5 25.8 27.5 29.5 30.6 28.9 26.4 25.0 24.3 23.6 23.0 22.4 22.0 21.6 21.4 21.1 20.9 20.8 20.6 20.5 20.3 20.2 20.1 20.1 24.0 24.9 26.2 29.3 34.1 39.1 42.0 39.7 32.6 26.6 24.8 24.0 23.2 22.7 22.2 21.9 21.6 21.3 21.1 20.9 20.7 20.5 20.4 20.3 20.2 20.1 24.7 26.2 28.8 35.8 54.4 83.5 97.3 87.1 58.1 31.7 25.6 24.6 23.7 23.0 22.6 22.1 21.8 21.5 21.2 21.0 20.8 20.6 20.4 20.3 20.2 20.1 25.5 27.4 32.4 54.8 138.3 263.3 279.6 171.5 74.9 35.1 27.1 25.5 24.3 23.6 22.9 22.4 22.0 21.6 21.3 21.0 20.8 20.6 20.4 20.3 20.2 20.1 26.5 28.7 34.7 69.0 230.0 438.4 426.0 208.3 58.8 33.4 28.2 26.2 24.8 24.0 23.2 22.5 22.1 21.7 21.3 21.0 20.8 20.6 20.4 20.3 20.2 20.1 27.0 29.3 39.0 78.8 206.4 352.9 362.5 186.5 42.1 30.5 27.6 26.0 24.7 23.8 23.1 22.5 22.0 21.6 21.3 21.0 20.8 20.6 20.4 20.3 20.1 20.1 26.1 27.9 36.6 64.2 104.7 145.6 185.5 122.6 34.6 27.9 26.3 25.2 24.2 23.4 22.8 22.3 21.9 21.5 21.3 21.0 20.8 20.6 20.4 20.3 20.1 20.1 24.7 25.8 28.0 33.5 40.2 44.1 59.6 52.6 29.4 26.4 25.2 24.3 23.6 22.9 22.4 22.0 21.7 21.4 21.2 20.9 20.7 20.6 20.4 20.3 20.1 20.1 23.1 24.7 25.5 26.9 28.7 30.5 33.2 31.2 26.7 25.4 24.5 23.7 23.1 22.5 22.1 21.8 21.5 21.2 21.0 20.8 20.6 20.5 20.4 20.2 20.1 20.1 20.0 20.0 20.0 20.0 20.0 20.0 20.0 20.0 20.0 20.0 20.0 20.0 20.0 20.0 20.0 20.0 20.0 20.0 20.0 20.0 20.0 20.0 20.0 20.0 20.0 20.0 20.1 20.1 20.1 20.1 20.1 20.1 20.1 20.1 20.1 20.1 20.1 20.1 20.1 20.1 20.1 20.0 20.0 20.0 20.0 20.0 20.0 20.0 20.0 20.1 20.0 20.0 20.1 20.1 20.1 20.1 20.1 20.1 20.1 20.2 20.2 20.2 20.1 20.1 20.1 20.1 20.1 20.1 20.1 20.1 20.1 20.1 20.1 20.1 20.1 20.1 20.1 20.0 20.2 20.2 20.2 20.2 20.2 20.2 20.2 20.2 20.3 20.2 20.2 20.2 20.2 20.2 20.2 20.2 20.2 20.2 20.2 20.2 20.2 20.2 20.2 20.1 20.1 20.0 20.2 20.3 20.3 20.3 20.3 20.3 20.3 20.3 20.4 20.3 20.3 20.3 20.3 20.2 20.2 20.2 20.2 20.2 20.2 20.3 20.3 20.3 20.2 20.1 20.0 20.0 20.3 20.4 20.4 20.4 20.5 20.4 20.4 20.5 20.5 20.5 20.4 20.4 20.3 20.3 20.3 20.3 20.3 20.3 20.4 20.4 20.4 20.3 20.2 20.1 20.0 20.0 20.4 20.5 20.5 20.6 20.6 20.6 20.6 20.6 20.6 20.6 20.5 20.5 20.5 20.4 20.4 20.4 20.4 20.5 20.5 20.5 20.4 20.3 20.2 20.1 20.0 20.0 20.5 20.6 20.6 20.7 20.8 20.7 20.8 20.8 20.8 20.7 20.7 20.6 20.6 20.6 20.6 20.6 20.6 20.6 20.6 20.5 20.4 20.2 20.2 20.1 20.0 20.0 20.6 20.7 20.8 20.9 20.9 20.9 21.0 21.0 21.0 20.9 20.8 20.8 20.7 20.7 20.7 20.8 20.8 20.7 20.6 20.5 20.3 20.2 20.2 20.1 20.1 20.0 20.8 20.9 21.0 21.1 21.1 21.2 21.2 21.2 21.2 21.1 21.0 20.9 20.9 20.9 20.9 20.9 20.9 20.8 20.6 20.5 20.3 20.3 20.2 20.1 20.1 20.0 21.0 21.0 21.1 21.3 21.4 21.4 21.5 21.5 21.4 21.3 21.2 21.2 21.2 21.2 21.2 21.1 21.0 20.8 20.6 20.5 20.4 20.3 20.2 20.1 20.1 20.0 21.2 21.2 21.4 21.5 21.7 21.7 21.8 21.9 21.8 21.6 21.5 21.5 21.5 21.4 21.4 21.2 21.0 20.8 20.6 20.5 20.4 20.3 20.2 20.1 20.1 20.0 21.4 21.5 21.6 21.8 22.0 22.1 22.3 22.3 22.1 22.0 21.9 21.8 21.8 21.7 21.5 21.3 21.1 20.8 20.7 20.5 20.4 20.3 20.2 20.2 20.1 20.0 21.7 21.8 22.0 22.2 22.4 22.7 22.8 22.8 22.6 22.4 22.4 22.2 22.1 21.9 21.6 21.4 21.1 20.9 20.7 20.6 20.5 20.4 20.3 20.2 20.1 20.0 22.0 22.2 22.4 22.7 23.1 23.4 23.6 23.5 23.2 23.0 22.9 22.7 22.4 22.1 21.7 21.4 21.2 21.0 20.8 20.6 20.5 20.4 20.3 20.2 20.1 20.0 22.5 22.8 23.1 23.4 23.9 24.5 25.1 24.8 24.0 23.7 23.4 23.1 22.7 22.3 21.9 21.5 21.2 21.0 20.8 20.7 20.5 20.4 20.3 20.2 20.1 20.0 22.9 23.5 24.3 25.0 25.9 28.1 29.3 28.3 25.9 24.5 24.0 23.5 22.9 22.4 22.0 21.6 21.3 21.1 20.9 20.7 20.6 20.4 20.3 20.2 20.1 20.1 23.6 24.7 28.3 32.6 32.7 33.6 35.4 32.5 27.9 25.4 24.6 23.9 23.2 22.6 22.1 21.7 21.4 21.2 21.0 20.8 20.6 20.5 20.3 20.2 20.1 20.1 25.6 28.5 36.3 44.6 45.9 50.9 57.1 49.0 34.8 27.3 25.3 24.4 23.6 22.9 22.4 22.0 21.6 21.4 21.1 20.9 20.7 20.6 20.4 20.3 20.1 20.1 29.1 36.4 45.1 56.5 79.4 132.6 170.5 144.2 79.0 34.0 26.3 25.1 24.1 23.3 22.8 22.3 21.9 21.6 21.3 21.0 20.8 20.6 20.4 20.3 20.1 20.1 29.7 37.9 53.7 94.9 186.3 299.6 343.3 266.2 127.3 43.6 28.5 26.2 24.8 23.9 23.1 22.5 22.1 21.7 21.4 21.1 20.8 20.6 20.4 20.3 20.1 20.1 28.3 33.5 52.9 126.2 283.4 402.1 402.2 263.3 98.1 42.4 30.1 27.1 25.4 24.3 23.4 22.7 22.2 21.8 21.4 21.1 20.8 20.6 20.4 20.3 20.1 20.1 28.3 33.3 60.5 138.6 258.1 327.3 329.7 197.3 52.5 33.9 29.0 26.9 25.3 24.2 23.4 22.7 22.1 21.7 21.4 21.1 20.8 20.6 20.4 20.3 20.1 20.1 27.5 31.2 55.0 99.9 137.2 161.6 201.6 140.4 41.1 29.6 27.3 25.9 24.7 23.8 23.1 22.5 22.0 21.6 21.3 21.1 20.8 20.6 20.4 20.3 20.1 20.1 25.6 26.9 32.3 39.2 44.6 54.9 85.9 72.6 32.2 27.5 25.9 24.8 23.9 23.2 22.7 22.2 21.8 21.5 21.2 21.0 20.8 20.6 20.4 20.3 20.1 20.1 23.3 25.1 26.9 28.5 30.0 33.1 37.9 34.6 27.6 26.1 25.0 24.1 23.4 22.8 22.3 21.9 21.6 21.3 21.1 20.9 20.7 20.5 20.4 20.2 20.1 20.1 20.0 20.0 20.0 20.0 20.0 20.0 20.0 20.0 20.0 20.0 20.0 20.0 20.0 20.0 20.0 20.0 20.0 20.0 20.0 20.0 20.0 20.0 20.0 20.0 20.0 20.0 20.1 20.1 20.1 20.1 20.1 20.1 20.1 20.1 20.1 20.1 20.1 20.1 20.1 20.1 20.1 20.1 20.1 20.1 20.0 20.0 20.0 20.0 20.1 20.1 20.1 20.0 20.1 20.1 20.2 20.2 20.2 20.2 20.2 20.2 20.2 20.2 20.2 20.1 20.1 20.1 20.1 20.1 20.1 20.1 20.1 20.1 20.1 20.1 20.1 20.1 20.1 20.0 20.2 20.2 20.2 20.3 20.3 20.2 20.2 20.3 20.3 20.3 20.2 20.2 20.2 20.2 20.2 20.2 20.2 20.2 20.2 20.2 20.2 20.2 20.2 20.1 20.1 20.0 20.3 20.3 20.3 20.4 20.4 20.3 20.4 20.4 20.4 20.4 20.3 20.3 20.3 20.3 20.3 20.3 20.3 20.3 20.3 20.3 20.3 20.3 20.2 20.1 20.1 20.0 20.4 20.4 20.5 20.5 20.5 20.5 20.5 20.5 20.5 20.5 20.5 20.4 20.4 20.4 20.4 20.4 20.4 20.4 20.4 20.4 20.4 20.3 20.2 20.1 20.0 20.0 20.5 20.5 20.6 20.6 20.6 20.6 20.6 20.7 20.7 20.7 20.6 20.6 20.5 20.5 20.5 20.5 20.5 20.5 20.5 20.5 20.4 20.3 20.2 20.1 20.1 20.0 20.6 20.6 20.7 20.8 20.8 20.8 20.8 20.9 20.9 20.8 20.7 20.7 20.7 20.7 20.7 20.6 20.6 20.6 20.6 20.5 20.4 20.3 20.2 20.1 20.1 20.0 20.7 20.8 20.9 20.9 21.0 21.0 21.0 21.1 21.1 21.0 20.9 20.9 20.9 20.8 20.8 20.8 20.8 20.7 20.6 20.5 20.4 20.3 20.2 20.1 20.1 20.0 20.9 20.9 21.0 21.1 21.2 21.2 21.3 21.3 21.3 21.2 21.1 21.1 21.0 21.0 21.0 21.0 20.9 20.8 20.7 20.5 20.4 20.3 20.2 20.1 20.1 20.0 21.1 21.1 21.2 21.4 21.4 21.5 21.6 21.6 21.6 21.5 21.4 21.3 21.3 21.2 21.2 21.1 21.0 20.8 20.7 20.5 20.4 20.3 20.2 20.1 20.1 20.0 21.3 21.3 21.5 21.6 21.7 21.8 21.9 22.0 21.9 21.8 21.6 21.6 21.5 21.5 21.4 21.2 21.1 20.9 20.7 20.6 20.5 20.4 20.3 20.2 20.1 20.0 21.5 21.6 21.8 21.9 22.1 22.2 22.3 22.4 22.3 22.1 22.0 21.9 21.8 21.7 21.5 21.3 21.1 20.9 20.8 20.6 20.5 20.4 20.3 20.2 20.1 20.0 21.8 21.9 22.1 22.3 22.5 22.7 22.9 22.9 22.7 22.6 22.4 22.3 22.1 21.9 21.7 21.4 21.2 21.0 20.9 20.7 20.5 20.4 20.3 20.2 20.1 20.0 22.1 22.3 22.5 22.7 23.0 23.3 23.6 23.7 23.4 23.1 22.9 22.7 22.4 22.1 21.8 21.5 21.3 21.1 20.9 20.7 20.6 20.4 20.3 20.2 20.1 20.0 22.6 23.2 23.6 23.6 23.8 24.3 25.0 25.0 24.3 23.8 23.5 23.1 22.7 22.3 22.0 21.7 21.4 21.2 21.0 20.8 20.6 20.5 20.3 20.2 20.1 20.1 23.3 27.2 30.5 28.6 27.0 28.2 30.0 29.6 26.7 24.6 24.1 23.6 23.0 22.5 22.1 21.8 21.5 21.2 21.0 20.8 20.6 20.5 20.3 20.2 20.1 20.1 24.7 35.3 48.5 46.4 34.4 33.4 38.8 35.8 29.4 25.7 24.7 24.0 23.4 22.8 22.3 21.9 21.6 21.3 21.1 20.9 20.7 20.5 20.4 20.3 20.1 20.1 27.7 44.8 67.4 67.4 45.7 45.8 59.3 48.5 33.0 27.2 25.5 24.6 23.8 23.1 22.6 22.1 21.8 21.5 21.2 21.0 20.8 20.6 20.5 20.3 20.1 20.1 33.0 56.6 79.8 81.8 67.8 110.4 163.1 124.8 61.3 31.9 26.8 25.4 24.4 23.6 23.0 22.5 22.1 21.7 21.4 21.2 20.9 20.7 20.5 20.3 20.2 20.1 35.4 61.1 98.3 135.7 143.8 227.5 321.3 259.8 132.5 49.6 30.0 26.6 25.1 24.1 23.4 22.7 22.3 21.9 21.5 21.2 20.9 20.7 20.5 20.3 20.1 20.1 32.9 49.3 97.8 186.9 220.7 281.8 362.1 278.0 133.2 53.9 32.0 27.5 25.8 24.6 23.6 22.9 22.4 21.9 21.5 21.2 20.9 20.7 20.5 20.3 20.1 20.1 31.7 47.9 104.4 191.7 204.3 236.3 301.4 203.3 75.5 39.2 30.2 27.2 25.7 24.4 23.6 22.9 22.3 21.9 21.5 21.2 20.9 20.7 20.5 20.3 20.1 20.1 30.6 44.9 88.5 125.2 112.9 141.9 205.9 145.1 52.0 32.2 27.8 26.2 24.9 23.9 23.2 22.7 22.2 21.8 21.5 21.2 20.9 20.7 20.5 20.3 20.2 20.1 27.0 30.6 42.1 45.9 44.2 62.2 95.1 76.1 35.0 28.7 26.2 25.0 24.1 23.4 22.8 22.3 22.0 21.6 21.3 21.1 20.9 20.7 20.5 20.3 20.1 20.1 23.6 25.9 29.1 30.6 31.1 35.1 39.8 35.2 28.0 26.5 25.2 24.3 23.6 23.0 22.5 22.1 21.7 21.4 21.2 21.0 20.8 20.6 20.4 20.3 20.1 20.1 20.0 20.0 20.0 20.0 20.0 20.0 20.0 20.0 20.0 20.0 20.0 20.0 20.0 20.0 20.0 20.0 20.0 20.0 20.0 20.0 20.0 20.0 20.0 20.0 20.0 20.0 20.1 20.1 20.1 20.1 20.1 20.1 20.1 20.1 20.1 20.1 20.1 20.1 20.1 20.1 20.1 20.1 20.1 20.1 20.1 20.1 20.1 20.1 20.1 20.1 20.1 20.0 20.1 20.2 20.2 20.2 20.2 20.2 20.2 20.2 20.2 20.2 20.2 20.2 20.2 20.1 20.1 20.1 20.1 20.1 20.1 20.1 20.1 20.1 20.2 20.1 20.1 20.0 20.2 20.2 20.3 20.3 20.3 20.3 20.3 20.3 20.3 20.3 20.3 20.3 20.2 20.2 20.2 20.2 20.2 20.2 20.2 20.2 20.2 20.3 20.2 20.2 20.1 20.0 20.3 20.3 20.4 20.4 20.4 20.4 20.4 20.4 20.4 20.4 20.4 20.4 20.3 20.3 20.3 20.3 20.3 20.3 20.3 20.3 20.3 20.3 20.2 20.1 20.1 20.0 20.4 20.5 20.5 20.5 20.5 20.5 20.5 20.6 20.6 20.6 20.5 20.5 20.5 20.5 20.5 20.5 20.5 20.5 20.4 20.4 20.4 20.3 20.2 20.1 20.1 20.0 20.5 20.6 20.6 20.7 20.7 20.7 20.7 20.7 20.8 20.7 20.7 20.6 20.6 20.6 20.6 20.6 20.6 20.6 20.5 20.5 20.4 20.3 20.2 20.1 20.1 20.0 20.6 20.7 20.8 20.8 20.8 20.8 20.9 20.9 21.0 20.9 20.8 20.8 20.8 20.8 20.8 20.7 20.7 20.7 20.6 20.5 20.5 20.3 20.2 20.1 20.1 20.0 20.8 20.8 20.9 21.0 21.0 21.0 21.1 21.1 21.2 21.1 21.1 21.0 21.0 21.0 20.9 20.9 20.8 20.8 20.7 20.6 20.5 20.4 20.3 20.2 20.1 20.0 20.9 21.0 21.1 21.2 21.2 21.2 21.3 21.4 21.4 21.4 21.3 21.3 21.2 21.1 21.1 21.0 20.9 20.8 20.7 20.6 20.5 20.4 20.3 20.2 20.1 20.0 21.1 21.2 21.3 21.4 21.4 21.5 21.6 21.7 21.7 21.6 21.5 21.5 21.4 21.3 21.3 21.2 21.0 20.9 20.8 20.7 20.5 20.4 20.3 20.2 20.1 20.0 21.4 21.5 21.6 21.7 21.7 21.8 22.0 22.1 22.0 21.9 21.8 21.7 21.6 21.5 21.4 21.3 21.1 21.0 20.9 20.7 20.6 20.4 20.3 20.2 20.1 20.0 21.6 21.7 21.9 22.0 22.1 22.2 22.4 22.5 22.4 22.3 22.2 22.0 21.9 21.7 21.6 21.4 21.2 21.1 20.9 20.8 20.6 20.5 20.3 20.2 20.1 20.1 21.9 22.0 22.2 22.3 22.5 22.7 23.0 23.1 22.9 22.7 22.5 22.4 22.2 22.0 21.7 21.5 21.3 21.2 21.0 20.8 20.6 20.5 20.3 20.2 20.1 20.1 22.2 22.5 22.7 22.8 22.9 23.3 23.7 23.7 23.5 23.2 22.9 22.7 22.5 22.2 21.9 21.7 21.5 21.3 21.0 20.8 20.7 20.5 20.4 20.2 20.1 20.1 22.7 23.5 23.9 23.7 23.6 24.0 24.8 24.9 24.3 23.9 23.5 23.1 22.8 22.4 22.1 21.8 21.6 21.3 21.1 20.9 20.7 20.5 20.4 20.2 20.1 20.1 24.6 32.5 36.8 31.8 27.4 26.7 28.9 29.1 26.4 24.7 24.1 23.6 23.1 22.7 22.3 22.0 21.7 21.4 21.2 20.9 20.7 20.6 20.4 20.3 20.1 20.1 32.8 59.7 73.0 51.0 31.2 31.8 38.2 37.8 31.3 26.6 24.9 24.1 23.5 23.0 22.5 22.1 21.8 21.5 21.2 21.0 20.8 20.6 20.5 20.3 20.1 20.1 43.4 84.0 102.5 67.7 35.6 40.9 52.3 47.5 36.0 29.2 26.0 24.7 23.9 23.3 22.8 22.3 22.0 21.6 21.4 21.1 20.9 20.7 20.5 20.3 20.2 20.1 49.5 92.6 111.3 77.1 45.7 68.0 95.5 78.9 56.7 42.9 29.5 25.6 24.5 23.7 23.1 22.6 22.2 21.8 21.5 21.3 21.0 20.8 20.5 20.3 20.2 20.1 54.6 99.6 136.0 116.1 82.5 142.1 213.5 193.0 133.5 72.9 35.9 26.9 25.3 24.3 23.6 22.9 22.3 21.9 21.6 21.3 21.0 20.7 20.5 20.3 20.2 20.1 53.2 89.7 144.8 152.1 133.3 220.4 312.2 271.8 165.5 79.8 40.6 28.0 25.9 24.7 23.8 23.0 22.4 22.0 21.6 21.3 21.0 20.7 20.5 20.3 20.1 20.1 51.7 89.8 151.0 155.4 141.9 223.6 289.3 222.6 118.5 61.8 37.1 27.6 25.8 24.5 23.6 22.9 22.4 22.0 21.6 21.3 21.0 20.7 20.5 20.3 20.2 20.1 47.9 81.8 125.6 114.6 95.3 145.3 185.4 138.4 76.2 47.5 29.8 26.2 25.0 24.0 23.3 22.8 22.3 21.9 21.6 21.3 21.0 20.8 20.5 20.3 20.2 20.1 36.0 50.1 62.5 54.8 47.9 64.4 83.5 69.1 44.8 35.2 26.6 25.1 24.2 23.5 23.0 22.5 22.1 21.8 21.5 21.2 21.0 20.7 20.5 20.3 20.2 20.1 26.6 33.8 36.6 33.0 31.8 34.7 38.6 36.0 30.4 27.8 25.4 24.5 23.7 23.1 22.7 22.3 21.9 21.6 21.3 21.1 20.9 20.7 20.5 20.3 20.2 20.1 20.0 20.0 20.0 20.0 20.0 20.0 20.0 20.0 20.1 20.1 20.1 20.0 20.0 20.0 20.0 20.0 20.0 20.0 20.0 20.0 20.0 20.0 20.0 20.0 20.1 20.1 20.1 20.1 20.1 20.1 20.1 20.1 20.1 20.1 20.1 20.1 20.1 20.1 20.1 20.1 20.1 20.1 20.1 20.1 20.1 20.1 20.1 20.1 20.1 20.1 20.1 20.1 20.1 20.2 20.2 20.2 20.2 20.2 20.2 20.2 20.2 20.2 20.2 20.2 20.2 20.2 20.2 20.2 20.2 20.2 20.2 20.2 20.2 20.2 20.2 20.2 20.1 20.0 20.2 20.3 20.3 20.3 20.3 20.3 20.3 20.3 20.3 20.3 20.3 20.3 20.3 20.3 20.3 20.3 20.3 20.3 20.3 20.3 20.3 20.3 20.3 20.2 20.1 20.0 20.3 20.4 20.4 20.4 20.4 20.4 20.4 20.4 20.5 20.5 20.4 20.4 20.4 20.4 20.4 20.4 20.4 20.4 20.4 20.4 20.4 20.4 20.3 20.2 20.1 20.0 20.4 20.5 20.5 20.5 20.5 20.5 20.5 20.6 20.6 20.6 20.6 20.5 20.5 20.5 20.5 20.6 20.6 20.5 20.5 20.5 20.5 20.4 20.3 20.2 20.1 20.0 20.5 20.6 20.6 20.7 20.7 20.7 20.7 20.7 20.8 20.8 20.7 20.7 20.7 20.7 20.7 20.7 20.7 20.7 20.6 20.6 20.5 20.4 20.3 20.2 20.1 20.0 20.7 20.7 20.8 20.8 20.8 20.8 20.9 20.9 21.0 21.0 20.9 20.9 20.9 20.9 20.9 20.9 20.8 20.8 20.7 20.6 20.5 20.4 20.3 20.2 20.1 20.0 20.8 20.9 20.9 21.0 21.0 21.0 21.1 21.2 21.2 21.2 21.2 21.2 21.1 21.1 21.1 21.0 20.9 20.9 20.8 20.7 20.6 20.4 20.3 20.2 20.1 20.0 21.0 21.1 21.1 21.2 21.2 21.3 21.4 21.5 21.5 21.5 21.4 21.4 21.4 21.3 21.2 21.2 21.1 21.0 20.9 20.7 20.6 20.5 20.3 20.2 20.1 20.0 21.2 21.3 21.4 21.4 21.5 21.5 21.7 21.8 21.8 21.8 21.7 21.7 21.6 21.5 21.4 21.3 21.2 21.1 20.9 20.8 20.7 20.5 20.3 20.2 20.1 20.1 21.4 21.5 21.6 21.7 21.8 21.9 22.1 22.2 22.2 22.1 22.0 21.9 21.8 21.7 21.5 21.4 21.3 21.1 21.0 20.9 20.7 20.5 20.3 20.2 20.1 20.1 21.7 21.8 21.9 22.0 22.2 22.3 22.5 22.6 22.6 22.5 22.3 22.2 22.0 21.9 21.7 21.5 21.4 21.2 21.1 20.9 20.7 20.5 20.4 20.2 20.1 20.1 22.0 22.1 22.3 22.4 22.5 22.8 23.1 23.2 23.0 22.8 22.6 22.5 22.3 22.1 21.9 21.7 21.5 21.3 21.1 20.9 20.7 20.5 20.4 20.2 20.1 20.1 22.3 22.5 22.7 22.8 22.9 23.3 23.7 23.8 23.6 23.3 23.0 22.8 22.5 22.3 22.1 21.8 21.6 21.4 21.2 21.0 20.7 20.5 20.4 20.2 20.1 20.1 22.7 23.2 23.6 23.6 23.6 23.9 24.6 24.8 24.3 23.9 23.5 23.2 22.9 22.5 22.2 22.0 21.7 21.5 21.2 21.0 20.8 20.6 20.4 20.3 20.1 20.1 25.3 33.2 34.9 29.4 26.8 26.1 28.1 28.0 25.9 24.7 24.1 23.6 23.2 22.8 22.5 22.2 21.9 21.6 21.3 21.0 20.8 20.6 20.4 20.3 20.1 20.1 47.9 77.9 69.4 37.3 29.2 31.0 35.8 37.9 33.5 28.1 25.0 24.1 23.6 23.1 22.7 22.3 22.0 21.7 21.4 21.1 20.9 20.7 20.5 20.3 20.2 20.1 77.9 121.0 96.4 42.2 32.3 40.3 47.5 49.1 40.5 31.4 26.2 24.7 24.0 23.4 22.9 22.5 22.1 21.8 21.5 21.2 21.0 20.7 20.5 20.3 20.2 20.1 86.3 129.2 100.8 48.0 44.6 60.5 71.5 74.3 69.0 51.5 30.9 25.5 24.5 23.8 23.3 22.7 22.3 21.9 21.6 21.3 21.0 20.8 20.6 20.4 20.2 20.1 94.0 136.4 116.6 71.6 89.6 126.5 143.8 158.9 148.4 93.2 41.1 26.8 25.3 24.4 23.7 23.0 22.4 22.0 21.6 21.3 21.0 20.8 20.5 20.3 20.2 20.1 95.1 131.7 123.6 104.4 170.0 234.7 249.0 243.9 188.9 107.5 48.6 27.8 25.9 24.7 23.8 23.1 22.5 22.0 21.6 21.3 21.0 20.7 20.5 20.3 20.2 20.1 90.2 134.6 129.1 109.4 185.4 254.8 252.1 208.9 141.7 84.7 42.5 27.4 25.6 24.5 23.6 23.0 22.5 22.0 21.6 21.3 21.0 20.8 20.5 20.3 20.2 20.1 77.2 122.7 124.7 92.1 113.8 151.4 148.7 114.3 82.1 57.8 31.2 26.1 24.9 24.1 23.4 22.8 22.4 22.0 21.6 21.3 21.0 20.8 20.5 20.3 20.2 20.1 49.7 76.4 84.7 64.1 55.1 61.8 67.6 59.7 47.7 38.2 26.7 25.1 24.2 23.6 23.1 22.6 22.2 21.9 21.5 21.3 21.0 20.8 20.5 20.3 20.2 20.1 30.6 42.6 46.9 38.4 34.7 34.6 36.2 35.9 31.9 28.2 25.5 24.5 23.8 23.3 22.9 22.4 22.1 21.7 21.4 21.2 20.9 20.7 20.5 20.3 20.2 20.1 20.0 20.0 20.0 20.0 20.0 20.0 20.0 20.0 20.1 20.1 20.1 20.1 20.0 20.0 20.0 20.0 20.0 20.0 20.0 20.0 20.0 20.0 20.0 20.1 20.1 20.1 20.1 20.1 20.1 20.1 20.1 20.1 20.1 20.1 20.1 20.1 20.1 20.1 20.1 20.1 20.1 20.1 20.1 20.1 20.1 20.1 20.1 20.1 20.1 20.1 20.1 20.1 20.2 20.2 20.2 20.2 20.2 20.2 20.2 20.2 20.2 20.2 20.2 20.2 20.2 20.2 20.2 20.2 20.2 20.2 20.2 20.2 20.2 20.2 20.2 20.2 20.1 20.1 20.2 20.3 20.3 20.3 20.3 20.3 20.3 20.3 20.3 20.3 20.3 20.3 20.3 20.3 20.3 20.3 20.3 20.3 20.3 20.3 20.3 20.4 20.3 20.2 20.1 20.0 20.3 20.4 20.4 20.4 20.4 20.4 20.4 20.4 20.5 20.5 20.4 20.4 20.4 20.4 20.5 20.5 20.5 20.5 20.5 20.5 20.5 20.4 20.4 20.2 20.1 20.0 20.4 20.5 20.5 20.5 20.5 20.5 20.5 20.6 20.6 20.6 20.6 20.6 20.6 20.6 20.6 20.7 20.7 20.6 20.6 20.6 20.6 20.5 20.3 20.2 20.1 20.0 20.5 20.6 20.6 20.7 20.7 20.7 20.7 20.8 20.8 20.8 20.8 20.8 20.9 20.8 20.8 20.8 20.8 20.8 20.8 20.7 20.6 20.5 20.3 20.2 20.1 20.0 20.7 20.7 20.8 20.8 20.8 20.9 20.9 21.0 21.0 21.1 21.1 21.1 21.1 21.1 21.0 21.0 21.0 20.9 20.9 20.8 20.6 20.5 20.3 20.2 20.1 20.0 20.8 20.9 20.9 21.0 21.0 21.1 21.1 21.2 21.3 21.4 21.4 21.4 21.3 21.3 21.2 21.2 21.1 21.0 20.9 20.8 20.7 20.5 20.3 20.2 20.1 20.1 21.1 21.1 21.2 21.2 21.3 21.4 21.4 21.5 21.6 21.7 21.6 21.6 21.5 21.5 21.4 21.3 21.2 21.1 21.0 20.9 20.7 20.5 20.4 20.2 20.1 20.1 21.3 21.4 21.4 21.5 21.6 21.7 21.8 21.9 22.0 22.0 21.9 21.9 21.8 21.7 21.6 21.5 21.4 21.2 21.1 20.9 20.8 20.6 20.4 20.2 20.1 20.1 21.6 21.6 21.7 21.8 21.9 22.0 22.2 22.3 22.3 22.3 22.2 22.1 22.0 21.9 21.8 21.6 21.5 21.3 21.2 21.0 20.8 20.6 20.4 20.2 20.1 20.1 21.8 21.9 22.0 22.2 22.3 22.4 22.6 22.7 22.7 22.7 22.5 22.4 22.2 22.1 21.9 21.7 21.6 21.4 21.2 21.0 20.8 20.6 20.4 20.2 20.1 20.1 22.1 22.3 22.4 22.5 22.7 22.9 23.2 23.2 23.2 23.1 22.9 22.6 22.5 22.3 22.1 21.9 21.7 21.5 21.3 21.1 20.8 20.6 20.4 20.2 20.1 20.1 22.4 22.6 22.8 22.9 23.1 23.4 23.7 23.9 23.7 23.5 23.2 22.9 22.7 22.5 22.2 22.0 21.8 21.6 21.3 21.1 20.8 20.6 20.4 20.3 20.1 20.1 22.9 23.3 23.5 23.5 23.5 23.9 24.4 24.6 24.4 24.0 23.6 23.3 23.0 22.7 22.4 22.2 21.9 21.7 21.4 21.1 20.8 20.6 20.4 20.3 20.1 20.1 24.7 29.3 29.3 25.7 25.5 26.1 27.6 27.3 25.7 24.7 24.1 23.7 23.3 23.0 22.6 22.3 22.1 21.8 21.5 21.1 20.9 20.6 20.5 20.3 20.1 20.1 50.5 63.3 44.0 27.0 28.0 29.9 34.9 37.3 34.5 29.0 25.0 24.2 23.7 23.2 22.9 22.5 22.2 21.9 21.5 21.2 20.9 20.7 20.5 20.3 20.2 20.1 94.7 108.3 60.5 29.6 32.3 36.5 47.0 52.7 44.6 31.7 26.0 24.8 24.1 23.6 23.1 22.7 22.3 21.9 21.6 21.2 21.0 20.8 20.5 20.3 20.2 20.1 116.2 129.9 79.4 51.2 51.6 57.1 77.7 90.0 73.2 42.3 28.8 25.5 24.7 24.0 23.4 22.9 22.4 22.0 21.6 21.3 21.0 20.8 20.6 20.4 20.2 20.1 129.7 146.5 109.3 96.6 107.5 117.5 140.6 158.4 139.9 77.3 37.2 26.5 25.3 24.5 23.8 23.1 22.6 22.1 21.6 21.3 21.0 20.8 20.5 20.3 20.2 20.1 127.8 147.7 127.2 149.4 189.5 196.8 207.6 209.1 170.5 93.4 43.5 27.3 25.8 24.8 23.9 23.3 22.7 22.1 21.7 21.3 21.0 20.7 20.5 20.3 20.1 20.1 110.6 143.0 118.5 140.4 182.5 176.0 173.8 157.0 116.5 69.2 38.1 27.0 25.6 24.7 23.8 23.2 22.6 22.1 21.7 21.3 21.0 20.7 20.5 20.3 20.1 20.1 93.0 132.1 112.1 95.2 102.3 91.2 84.4 71.3 57.3 44.4 29.7 26.1 25.0 24.3 23.6 23.0 22.5 22.0 21.7 21.3 21.0 20.8 20.5 20.3 20.2 20.1 61.8 88.5 94.2 72.8 58.1 49.7 45.8 42.8 37.0 32.1 26.5 25.3 24.5 23.9 23.3 22.8 22.3 21.9 21.6 21.3 21.0 20.8 20.5 20.3 20.2 20.1 34.3 45.1 52.8 47.0 38.6 33.6 32.2 32.0 29.3 26.8 25.5 24.8 24.1 23.6 23.1 22.6 22.2 21.9 21.5 21.2 20.9 20.7 20.5 20.3 20.2 20.1 20.0 20.0 20.0 20.0 20.0 20.0 20.0 20.1 20.1 20.1 20.1 20.1 20.0 20.0 20.0 20.0 20.0 20.0 20.0 20.0 20.0 20.1 20.1 20.1 20.1 20.1 20.1 20.1 20.1 20.1 20.1 20.1 20.1 20.1 20.1 20.1 20.1 20.1 20.1 20.1 20.1 20.1 20.1 20.1 20.1 20.1 20.1 20.1 20.1 20.2 20.1 20.1 20.1 20.2 20.2 20.2 20.2 20.2 20.2 20.2 20.2 20.2 20.2 20.2 20.2 20.2 20.2 20.2 20.2 20.2 20.2 20.2 20.2 20.3 20.3 20.3 20.1 20.1 20.2 20.3 20.3 20.3 20.3 20.3 20.3 20.4 20.4 20.4 20.3 20.4 20.4 20.3 20.3 20.4 20.4 20.4 20.4 20.4 20.4 20.4 20.4 20.3 20.1 20.1 20.3 20.4 20.4 20.4 20.4 20.4 20.5 20.5 20.5 20.5 20.5 20.5 20.5 20.5 20.5 20.6 20.6 20.6 20.6 20.6 20.6 20.5 20.4 20.2 20.1 20.0 20.4 20.5 20.5 20.6 20.6 20.5 20.6 20.7 20.7 20.7 20.7 20.7 20.8 20.8 20.8 20.8 20.8 20.8 20.7 20.7 20.7 20.6 20.4 20.2 20.1 20.0 20.5 20.6 20.6 20.7 20.7 20.7 20.8 20.8 20.9 20.9 20.9 21.0 21.0 21.0 21.0 21.0 21.0 20.9 20.9 20.8 20.7 20.6 20.4 20.2 20.1 20.0 20.7 20.7 20.8 20.8 20.9 20.9 21.0 21.1 21.1 21.2 21.2 21.3 21.3 21.2 21.2 21.2 21.1 21.1 21.0 20.9 20.7 20.6 20.4 20.2 20.1 20.1 20.9 20.9 21.0 21.0 21.1 21.2 21.3 21.4 21.5 21.5 21.5 21.5 21.5 21.4 21.4 21.3 21.3 21.2 21.1 20.9 20.8 20.6 20.4 20.2 20.1 20.1 21.1 21.2 21.2 21.3 21.4 21.6 21.8 21.8 21.8 21.8 21.8 21.8 21.7 21.6 21.6 21.5 21.4 21.3 21.2 21.0 20.8 20.6 20.4 20.2 20.1 20.1 21.3 21.4 21.5 21.6 21.8 22.0 22.1 22.1 22.2 22.2 22.1 22.0 21.9 21.8 21.7 21.6 21.5 21.4 21.2 21.1 20.9 20.7 20.4 20.2 20.1 20.1 21.6 21.7 21.8 22.0 22.1 22.3 22.5 22.5 22.6 22.5 22.4 22.3 22.1 22.0 21.9 21.8 21.6 21.5 21.3 21.1 20.9 20.7 20.4 20.2 20.1 20.1 21.9 22.0 22.1 22.3 22.4 22.6 22.8 22.9 22.9 22.9 22.7 22.5 22.4 22.2 22.1 21.9 21.8 21.6 21.4 21.2 20.9 20.7 20.4 20.2 20.1 20.1 22.1 22.3 22.5 22.6 22.8 23.1 23.3 23.4 23.4 23.3 23.0 22.8 22.6 22.5 22.3 22.1 21.9 21.7 21.5 21.2 21.0 20.7 20.4 20.2 20.1 20.1 22.4 2