<?xml version="1.0"?>
<VTKFile type="RectilinearGrid" version="1.0" byte_order="LittleEndian" header_type="UInt64">
<RectilinearGrid WholeExtent="25 50 0 25 0 15">
<Piece Extent="25 50 0 25 0 15">
<Coordinates>
<DataArray type="Float64" Name="Array X-Axis" format="ascii" RangeMin="15.0" RangeMax="30.0">
15.0 15.6 16.2 16.8 17.4 18.0 18.6 19.2 19.8 20.4 21.0 21.6 22.2 22.8 23.4 24.0 24.6 25.2 25.8 26.4 27.0 27.6 28.2 28.8 29.4 30.0 
</DataArray>
<DataArray type="Float64" Name="Array Y-Axis" format="ascii" RangeMin="0.0" RangeMax="15.0">
0.0 0.6 1.2 1.8 2.4 3.0 3.6 4.2 4.8 5.4 6.0 6.6 7.2 7.8 8.4 9.0 9.6 10.2 10.8 11.4 12.0 12.6 13.2 13.8 14.4 15.0 
</DataArray>
<DataArray type="Float64" Name="Array Z-Axis" format="ascii" RangeMin="0.0" RangeMax="9.0">
0.0 0.6 1.2 1.8 2.4 3.0 3.6 4.2 4.8 5.4 6.0 6.6 7.2 7.8 8.4 9.0 
</DataArray>
</Coordinates>
<PointData>
<DataArray Name="TEMPERATURE" NumberOfComponents="1" type="Float64" format="ascii">
20.0 20.0 20.0 20.0 20.0 20.0 20.1 20.1 20.1 20.1 20.1 20.1 20.0 20.0 20.0 20.0 20.0 20.0 20.0 20.0 20.0 20.0 20.0 20.0 20.0 20.0 20.1 20.1 20.1 20.1 20.1 20.1 20.1 20.1 20.1 20.1 20.1 20.1 20.1 20.1 20.1 20.1 20.1 20.1 20.1 20.1 20.1 20.1 20.1 20.1 20.0 20.0 20.1 20.2 20.2 20.2 20.2 20.2 20.2 20.2 20.2 20.3 20.3 20.2 20.2 20.2 20.2 20.1 20.1 20.1 20.1 20.1 20.1 20.1 20.1 20.1 20.1 20.0 20.2 20.2 20.3 20.3 20.3 20.3 20.3 20.3 20.3 20.4 20.4 20.3 20.3 20.2 20.2 20.2 20.2 20.2 20.2 20.2 20.2 20.2 20.2 20.1 20.1 20.0 20.3 20.3 20.4 20.4 20.4 20.4 20.4 20.4 20.4 20.5 20.4 20.4 20.3 20.3 20.3 20.3 20.3 20.3 20.3 20.3 20.3 20.3 20.2 20.1 20.1 20.0 20.4 20.4 20.5 20.5 20.5 20.5 20.5 20.6 20.6 20.6 20.5 20.5 20.4 20.4 20.4 20.4 20.4 20.4 20.4 20.4 20.4 20.3 20.2 20.1 20.1 20.0 20.5 20.5 20.6 20.7 20.7 20.7 20.7 20.7 20.7 20.7 20.6 20.6 20.5 20.5 20.5 20.5 20.5 20.5 20.5 20.5 20.4 20.3 20.2 20.1 20.1 20.0 20.6 20.7 20.8 20.8 20.8 20.8 20.8 20.8 20.9 20.8 20.8 20.7 20.7 20.7 20.6 20.6 20.6 20.6 20.6 20.5 20.4 20.3 20.2 20.1 20.1 20.0 20.7 20.8 20.9 21.0 21.0 21.0 21.0 21.0 21.0 21.0 20.9 20.8 20.8 20.8 20.7 20.7 20.7 20.7 20.7 20.5 20.4 20.3 20.2 20.2 20.1 20.0 20.9 21.0 21.1 21.2 21.2 21.2 21.2 21.2 21.3 21.2 21.1 21.0 21.0 20.9 20.9 20.9 20.9 20.8 20.7 20.5 20.4 20.3 20.3 20.2 20.1 20.0 21.0 21.1 21.3 21.4 21.4 21.4 21.5 21.5 21.5 21.4 21.3 21.2 21.1 21.1 21.1 21.1 21.0 20.8 20.7 20.6 20.5 20.4 20.3 20.2 20.1 20.1 21.2 21.3 21.5 21.6 21.7 21.7 21.8 21.7 21.7 21.6 21.5 21.4 21.3 21.3 21.3 21.2 21.0 20.8 20.7 20.6 20.5 20.4 20.3 20.2 20.1 20.1 21.4 21.5 21.7 21.9 22.0 22.1 22.1 22.1 22.0 21.9 21.7 21.6 21.6 21.6 21.5 21.2 21.0 20.9 20.8 20.6 20.5 20.4 20.3 20.2 20.1 20.1 21.6 21.8 22.0 22.2 22.4 22.5 22.6 22.6 22.5 22.3 22.0 21.9 21.9 21.8 21.5 21.3 21.1 21.0 20.8 20.7 20.6 20.4 20.3 20.2 20.1 20.1 21.9 22.1 22.3 22.6 22.8 23.1 23.2 23.1 23.0 22.7 22.4 22.4 22.2 21.9 21.6 21.4 21.2 21.0 20.9 20.7 20.6 20.5 20.4 20.2 20.1 20.1 22.2 22.4 22.7 23.1 23.3 23.8 24.0 23.7 23.4 23.2 23.0 22.7 22.4 22.0 21.7 21.5 21.3 21.1 20.9 20.8 20.6 20.5 20.4 20.3 20.1 20.1 22.5 22.8 23.2 23.6 24.0 24.5 24.8 24.5 24.2 23.9 23.5 23.0 22.5 22.1 21.8 21.6 21.3 21.1 21.0 20.8 20.7 20.5 20.4 20.3 20.1 20.1 23.0 23.3 23.8 24.4 24.8 25.4 25.8 25.7 25.3 24.7 23.9 23.2 22.7 22.3 22.0 21.7 21.5 21.2 21.1 20.9 20.8 20.6 20.5 20.3 20.2 20.1 23.5 23.9 24.6 25.4 26.0 26.9 27.4 27.1 26.4 25.4 24.3 23.5 23.0 22.6 22.2 21.9 21.7 21.4 21.2 21.1 20.9 20.7 20.5 20.4 20.2 20.1 24.2 24.7 25.5 26.9 29.4 32.5 32.6 30.1 28.2 26.4 24.9 24.1 23.5 23.0 22.6 22.3 21.9 21.6 21.4 21.1 21.0 20.8 20.6 20.4 20.2 20.1 25.3 26.1 27.2 30.7 34.0 37.2 36.9 33.4 31.0 27.6 25.7 24.8 24.1 23.4 22.9 22.6 22.1 21.7 21.4 21.1 20.9 20.7 20.5 20.4 20.2 20.1 26.1 27.5 29.2 33.9 37.8 20.0 20.0 37.0 33.6 28.6 26.5 25.4 24.6 23.7 23.1 22.6 22.2 21.8 21.4 21.1 20.9 20.7 20.5 20.3 20.2 20.1 26.5 28.1 29.9 33.8 36.8 20.0 20.0 38.7 34.2 28.7 26.9 25.5 24.4 23.7 23.0 22.5 22.1 21.8 21.4 21.2 20.9 20.6 20.4 20.3 20.2 20.1 26.4 27.5 28.7 32.0 38.0 43.7 39.5 34.9 31.1 27.6 26.4 25.0 23.9 23.4 22.8 22.3 22.0 21.7 21.4 21.1 20.9 20.7 20.5 20.3 20.2 20.1 25.2 26.0 26.7 29.1 34.3 37.5 34.9 30.1 27.0 26.0 25.3 24.3 23.4 22.9 22.5 22.1 21.9 21.6 21.4 21.1 20.9 20.7 20.5 20.3 20.2 20.1 23.2 24.6 25.4 26.9 28.4 29.5 29.1 27.1 25.6 24.8 24.1 23.5 22.9 22.5 22.1 21.9 21.7 21.5 21.2 21.0 20.8 20.6 20.4 20.3 20.1 20.1 20.0 20.0 20.0 20.0 20.0 20.0 20.1 20.1 20.1 20.1 20.1 20.1 20.0 20.0 20.0 20.0 20.0 20.0 20.0 20.0 20.0 20.0 20.0 20.0 20.0 20.0 20.1 20.1 20.1 20.1 20.1 20.1 20.1 20.1 20.1 20.1 20.1 20.1 20.1 20.1 20.1 20.1 20.1 20.1 20.1 20.1 20.1 20.0 20.0 20.1 20.0 20.0 20.1 20.1 20.2 20.2 20.2 20.2 20.2 20.2 20.2 20.2 20.2 20.2 20.2 20.1 20.1 20.1 20.1 20.1 20.1 20.1 20.1 20.1 20.1 20.1 20.1 20.0 20.2 20.2 20.2 20.3 20.3 20.3 20.3 20.3 20.3 20.3 20.3 20.3 20.2 20.2 20.2 20.2 20.2 20.2 20.2 20.2 20.2 20.2 20.2 20.1 20.1 20.0 20.3 20.3 20.3 20.4 20.4 20.4 20.4 20.4 20.4 20.5 20.4 20.3 20.3 20.3 20.3 20.3 20.3 20.3 20.2 20.3 20.3 20.3 20.2 20.1 20.1 20.0 20.4 20.4 20.4 20.5 20.5 20.5 20.5 20.5 20.6 20.6 20.5 20.4 20.4 20.4 20.4 20.4 20.3 20.3 20.3 20.4 20.4 20.3 20.2 20.1 20.1 20.0 20.5 20.5 20.6 20.6 20.6 20.6 20.6 20.7 20.7 20.7 20.6 20.5 20.5 20.5 20.5 20.5 20.4 20.4 20.5 20.5 20.4 20.3 20.2 20.1 20.1 20.0 20.6 20.6 20.7 20.8 20.8 20.8 20.8 20.8 20.9 20.8 20.7 20.6 20.6 20.6 20.6 20.5 20.6 20.6 20.6 20.5 20.4 20.3 20.2 20.1 20.1 20.0 20.7 20.8 20.9 21.0 21.0 21.0 21.0 21.0 21.0 21.0 20.9 20.8 20.8 20.7 20.7 20.7 20.7 20.7 20.6 20.5 20.4 20.3 20.2 20.1 20.1 20.0 20.8 20.9 21.0 21.1 21.2 21.2 21.2 21.2 21.2 21.2 21.0 21.0 20.9 20.9 20.9 20.9 20.9 20.8 20.6 20.5 20.4 20.3 20.2 20.1 20.1 20.0 21.0 21.1 21.2 21.3 21.4 21.4 21.5 21.5 21.5 21.4 21.2 21.1 21.1 21.1 21.1 21.1 21.0 20.8 20.6 20.5 20.4 20.3 20.2 20.2 20.1 20.0 21.2 21.3 21.5 21.6 21.7 21.8 21.8 21.8 21.7 21.6 21.4 21.4 21.3 21.3 21.3 21.2 21.0 20.8 20.6 20.5 20.5 20.4 20.3 20.2 20.1 20.1 21.4 21.5 21.7 21.9 22.1 22.1 22.2 22.2 22.1 21.9 21.7 21.6 21.6 21.6 21.5 21.2 21.0 20.8 20.7 20.6 20.5 20.4 20.3 20.2 20.1 20.1 21.6 21.8 22.0 22.3 22.5 22.6 22.7 22.7 22.5 22.3 22.1 22.0 22.0 21.8 21.5 21.3 21.1 20.9 20.8 20.6 20.5 20.4 20.3 20.2 20.1 20.1 21.9 22.1 22.4 22.7 23.0 23.3 23.4 23.2 23.0 22.7 22.5 22.4 22.2 21.9 21.6 21.3 21.2 21.0 20.8 20.7 20.5 20.4 20.3 20.2 20.1 20.1 22.2 22.5 22.8 23.2 23.6 24.1 24.2 23.9 23.5 23.3 23.1 22.8 22.4 22.0 21.7 21.5 21.2 21.0 20.9 20.7 20.6 20.5 20.4 20.2 20.1 20.1 22.6 23.0 23.3 23.8 24.4 25.0 25.3 24.9 24.3 24.0 23.6 23.1 22.6 22.2 21.9 21.6 21.3 21.1 20.9 20.8 20.6 20.5 20.4 20.3 20.1 20.1 23.1 23.5 24.1 25.1 25.8 26.2 26.9 26.5 25.5 24.8 24.1 23.4 22.8 22.4 22.0 21.7 21.4 21.2 21.0 20.9 20.7 20.6 20.5 20.3 20.2 20.1 23.7 24.2 25.0 27.3 28.5 28.5 29.8 29.2 27.1 25.6 24.6 23.7 23.1 22.6 22.2 21.9 21.7 21.4 21.2 21.1 20.9 20.7 20.5 20.3 20.2 20.1 24.4 25.1 26.5 30.3 33.4 36.6 37.4 33.1 29.1 26.6 25.1 24.2 23.6 23.0 22.6 22.3 21.9 21.6 21.4 21.1 20.9 20.7 20.5 20.4 20.2 20.1 25.5 26.4 28.3 34.1 51.2 100.0 103.7 53.0 32.8 28.1 26.0 25.0 24.3 23.6 23.0 22.6 22.2 21.8 21.4 21.1 20.9 20.7 20.5 20.3 20.2 20.1 26.7 28.0 30.0 38.4 77.2 262.6 323.8 118.5 39.1 30.0 27.1 25.8 24.8 23.9 23.2 22.7 22.2 21.8 21.4 21.1 20.9 20.7 20.5 20.3 20.2 20.1 27.6 28.9 30.9 39.2 78.6 289.8 431.2 178.6 43.8 30.6 27.4 25.9 24.7 23.9 23.1 22.6 22.1 21.8 21.5 21.2 20.9 20.6 20.4 20.3 20.2 20.1 26.9 28.0 29.8 35.7 65.8 140.7 204.3 128.1 42.1 28.9 26.7 25.2 24.2 23.5 22.9 22.3 22.0 21.7 21.4 21.1 20.9 20.7 20.5 20.3 20.2 20.1 25.2 26.1 27.4 31.1 46.4 56.3 60.8 54.1 33.7 26.5 25.4 24.4 23.5 23.0 22.5 22.1 21.8 21.6 21.3 21.1 20.8 20.6 20.5 20.3 20.2 20.1 23.3 24.8 25.8 27.7 30.3 32.1 31.7 29.5 26.8 25.1 24.3 23.7 23.0 22.6 22.2 21.8 21.6 21.4 21.2 21.0 20.8 20.6 20.4 20.3 20.1 20.1 20.0 20.0 20.0 20.0 20.0 20.0 20.0 20.1 20.1 20.0 20.0 20.0 20.0 20.0 20.0 20.0 20.0 20.0 20.0 20.0 20.0 20.0 20.0 20.0 20.0 20.0 20.1 20.1 20.1 20.1 20.1 20.1 20.1 20.1 20.1 20.1 20.1 20.1 20.1 20.1 20.1 20.1 20.1 20.0 20.0 20.0 20.0 20.0 20.0 20.0 20.0 20.0 20.1 20.1 20.1 20.1 20.2 20.2 20.2 20.2 20.2 20.2 20.2 20.1 20.1 20.1 20.1 20.1 20.1 20.1 20.1 20.1 20.1 20.1 20.1 20.1 20.0 20.0 20.2 20.2 20.2 20.2 20.3 20.3 20.3 20.3 20.3 20.3 20.3 20.2 20.2 20.2 20.2 20.2 20.2 20.2 20.1 20.1 20.2 20.2 20.2 20.1 20.0 20.0 20.3 20.3 20.3 20.3 20.4 20.4 20.4 20.4 20.4 20.4 20.3 20.3 20.3 20.3 20.3 20.2 20.2 20.2 20.2 20.2 20.3 20.3 20.2 20.1 20.0 20.0 20.3 20.4 20.4 20.5 20.5 20.5 20.5 20.5 20.5 20.5 20.4 20.4 20.4 20.3 20.3 20.3 20.3 20.3 20.3 20.4 20.4 20.3 20.2 20.1 20.0 20.0 20.4 20.5 20.5 20.6 20.6 20.6 20.6 20.6 20.7 20.6 20.5 20.5 20.4 20.4 20.4 20.4 20.4 20.4 20.5 20.5 20.4 20.3 20.2 20.1 20.0 20.0 20.5 20.6 20.7 20.8 20.8 20.8 20.8 20.8 20.8 20.7 20.7 20.6 20.6 20.5 20.5 20.5 20.5 20.6 20.6 20.5 20.3 20.2 20.2 20.1 20.1 20.0 20.7 20.7 20.8 20.9 20.9 21.0 21.0 21.0 21.0 20.9 20.8 20.7 20.7 20.7 20.6 20.7 20.7 20.7 20.6 20.4 20.3 20.2 20.2 20.1 20.1 20.0 20.8 20.9 21.0 21.1 21.2 21.2 21.2 21.2 21.2 21.1 21.0 20.9 20.8 20.8 20.8 20.9 20.9 20.8 20.6 20.4 20.3 20.3 20.2 20.1 20.1 20.0 21.0 21.1 21.2 21.3 21.5 21.5 21.5 21.5 21.5 21.3 21.2 21.1 21.1 21.1 21.1 21.1 20.9 20.7 20.5 20.4 20.3 20.3 20.2 20.1 20.1 20.0 21.2 21.3 21.4 21.6 21.8 21.8 21.9 21.9 21.7 21.6 21.4 21.3 21.3 21.4 21.3 21.2 20.9 20.7 20.6 20.5 20.4 20.3 20.2 20.1 20.1 20.0 21.4 21.5 21.7 21.9 22.1 22.2 22.3 22.3 22.1 21.9 21.7 21.7 21.7 21.6 21.5 21.2 20.9 20.8 20.6 20.5 20.4 20.3 20.2 20.2 20.1 20.0 21.7 21.8 22.0 22.3 22.6 22.8 23.0 22.9 22.6 22.3 22.2 22.1 22.0 21.8 21.5 21.2 21.0 20.8 20.7 20.6 20.5 20.4 20.3 20.2 20.1 20.0 22.0 22.2 22.5 22.9 23.2 23.6 23.7 23.5 23.1 22.8 22.7 22.5 22.3 22.0 21.6 21.3 21.1 20.9 20.8 20.6 20.5 20.4 20.3 20.2 20.1 20.1 22.3 22.7 23.0 23.5 23.9 24.5 24.7 24.4 23.8 23.5 23.3 22.9 22.5 22.1 21.7 21.4 21.2 21.0 20.8 20.7 20.5 20.4 20.3 20.2 20.1 20.1 22.8 23.2 23.7 24.4 25.1 26.0 26.4 25.7 24.8 24.3 23.9 23.3 22.7 22.2 21.9 21.6 21.3 21.1 20.9 20.7 20.6 20.5 20.3 20.2 20.1 20.1 23.4 23.9 24.6 27.8 29.1 29.0 30.9 29.2 26.2 25.2 24.5 23.7 23.0 22.5 22.1 21.7 21.4 21.2 21.0 20.8 20.7 20.5 20.4 20.3 20.1 20.1 24.0 24.8 26.9 36.3 39.0 39.1 48.4 46.5 34.0 26.6 25.0 24.1 23.4 22.8 22.3 21.9 21.6 21.4 21.2 21.0 20.8 20.6 20.5 20.3 20.2 20.1 24.8 26.5 31.7 45.9 55.4 70.6 85.9 74.7 48.2 29.4 25.8 24.6 23.8 23.2 22.7 22.2 21.9 21.6 21.3 21.1 20.9 20.7 20.5 20.3 20.2 20.1 26.0 28.1 33.8 53.5 105.3 188.6 198.2 121.3 58.5 31.6 26.9 25.5 24.5 23.7 23.1 22.6 22.1 21.7 21.4 21.1 20.9 20.7 20.5 20.3 20.2 20.1 27.5 29.5 34.9 62.3 160.6 322.9 361.6 211.8 73.9 33.3 28.4 26.5 25.2 24.2 23.3 22.8 22.2 21.8 21.4 21.1 20.9 20.7 20.5 20.3 20.1 20.1 28.7 30.7 36.4 63.3 161.8 334.9 435.9 299.3 101.3 37.0 28.9 26.7 25.4 24.2 23.4 22.7 22.2 21.8 21.5 21.2 20.9 20.6 20.4 20.3 20.1 20.1 27.7 29.4 33.2 50.5 118.4 212.4 307.5 255.5 94.3 34.2 27.5 25.8 24.7 23.8 23.1 22.5 22.0 21.7 21.4 21.1 20.9 20.6 20.4 20.3 20.1 20.1 25.6 26.7 28.6 36.1 63.1 82.5 122.5 119.1 51.5 27.7 25.8 24.7 23.9 23.2 22.7 22.2 21.8 21.5 21.3 21.0 20.8 20.6 20.4 20.3 20.1 20.1 23.5 25.3 26.5 29.1 33.2 38.8 48.5 42.9 28.7 25.9 24.8 24.0 23.3 22.8 22.3 21.9 21.6 21.3 21.1 20.9 20.7 20.5 20.4 20.3 20.1 20.1 20.0 20.0 20.0 20.0 20.0 20.0 20.1 20.1 20.1 20.0 20.0 20.0 20.0 20.0 20.0 20.0 20.0 20.0 20.0 20.0 20.0 20.0 20.0 20.0 20.0 20.0 20.1 20.1 20.1 20.1 20.1 20.1 20.1 20.1 20.1 20.1 20.1 20.1 20.1 20.1 20.1 20.1 20.1 20.0 20.0 20.0 20.0 20.0 20.0 20.0 20.0 20.0 20.1 20.1 20.1 20.2 20.2 20.2 20.2 20.2 20.2 20.2 20.2 20.1 20.1 20.1 20.1 20.1 20.1 20.1 20.1 20.1 20.1 20.1 20.1 20.1 20.0 20.0 20.2 20.2 20.2 20.3 20.3 20.3 20.3 20.3 20.3 20.3 20.2 20.2 20.2 20.2 20.2 20.2 20.2 20.2 20.1 20.1 20.1 20.2 20.1 20.1 20.0 20.0 20.3 20.3 20.3 20.4 20.4 20.4 20.4 20.4 20.4 20.4 20.3 20.3 20.3 20.3 20.3 20.2 20.2 20.2 20.2 20.2 20.2 20.2 20.2 20.1 20.0 20.0 20.4 20.4 20.4 20.5 20.5 20.5 20.5 20.5 20.5 20.5 20.4 20.4 20.4 20.3 20.3 20.3 20.3 20.3 20.3 20.4 20.3 20.3 20.2 20.1 20.0 20.0 20.5 20.5 20.6 20.6 20.6 20.6 20.6 20.7 20.7 20.6 20.5 20.5 20.5 20.4 20.4 20.4 20.4 20.4 20.5 20.5 20.4 20.2 20.2 20.1 20.0 20.0 20.6 20.6 20.7 20.8 20.8 20.8 20.8 20.9 20.8 20.7 20.7 20.6 20.6 20.6 20.5 20.5 20.5 20.6 20.6 20.5 20.3 20.2 20.2 20.1 20.0 20.0 20.7 20.8 20.9 21.0 21.0 21.0 21.0 21.0 21.0 20.9 20.8 20.7 20.7 20.7 20.7 20.7 20.7 20.7 20.6 20.4 20.3 20.2 20.2 20.1 20.1 20.0 20.8 20.9 21.0 21.2 21.2 21.2 21.3 21.3 21.2 21.1 21.0 20.9 20.9 20.8 20.9 20.9 20.9 20.8 20.6 20.4 20.3 20.3 20.2 20.1 20.1 20.0 21.0 21.1 21.2 21.4 21.5 21.5 21.6 21.6 21.5 21.3 21.2 21.1 21.1 21.1 21.1 21.1 20.9 20.7 20.6 20.4 20.4 20.3 20.2 20.1 20.1 20.0 21.2 21.3 21.5 21.7 21.8 21.9 22.0 22.0 21.8 21.6 21.5 21.4 21.3 21.4 21.3 21.2 20.9 20.7 20.6 20.5 20.4 20.3 20.2 20.1 20.1 20.0 21.4 21.6 21.7 22.0 22.2 22.3 22.4 22.4 22.2 21.9 21.8 21.7 21.7 21.6 21.5 21.2 20.9 20.8 20.6 20.5 20.4 20.3 20.2 20.2 20.1 20.0 21.7 21.9 22.1 22.4 22.7 22.9 23.0 23.0 22.6 22.4 22.2 22.2 22.1 21.9 21.5 21.2 21.0 20.9 20.7 20.6 20.5 20.4 20.3 20.2 20.1 20.0 22.0 22.3 22.6 22.9 23.3 23.6 23.9 23.7 23.3 22.9 22.8 22.6 22.4 22.0 21.6 21.3 21.1 21.0 20.8 20.7 20.5 20.4 20.3 20.2 20.1 20.0 22.5 22.8 23.5 24.0 24.1 24.5 24.9 24.7 24.1 23.7 23.4 23.0 22.6 22.1 21.8 21.5 21.3 21.0 20.9 20.7 20.6 20.4 20.3 20.2 20.1 20.1 23.0 23.6 25.1 25.8 25.9 27.3 27.9 26.7 25.3 24.6 24.1 23.5 22.9 22.4 21.9 21.6 21.4 21.1 20.9 20.7 20.6 20.4 20.3 20.2 20.1 20.1 23.6 24.5 27.0 30.3 30.5 32.4 35.4 31.7 27.0 25.6 24.8 23.9 23.2 22.6 22.2 21.8 21.5 21.2 21.0 20.8 20.7 20.5 20.4 20.3 20.1 20.1 24.4 26.6 35.1 45.2 43.5 52.4 70.0 62.8 40.4 27.5 25.6 24.4 23.5 22.9 22.4 22.0 21.6 21.4 21.1 20.9 20.8 20.6 20.4 20.3 20.1 20.1 25.8 35.8 54.4 72.3 76.1 121.4 171.0 142.1 74.7 31.9 26.5 25.0 24.0 23.3 22.7 22.3 21.9 21.6 21.3 21.0 20.8 20.6 20.5 20.3 20.2 20.1 28.1 40.7 63.8 106.1 167.1 261.3 307.4 224.1 101.7 37.5 28.1 26.1 24.8 23.9 23.1 22.6 22.2 21.7 21.4 21.1 20.9 20.7 20.5 20.3 20.2 20.1 29.4 37.4 61.4 132.0 257.3 375.1 401.7 282.8 114.9 39.6 29.9 27.3 25.7 24.4 23.5 22.8 22.3 21.9 21.5 21.2 20.9 20.7 20.5 20.3 20.1 20.1 29.8 37.8 66.3 137.1 258.5 378.4 431.4 342.4 149.4 41.7 30.1 27.5 25.9 24.6 23.7 22.9 22.3 21.9 21.5 21.2 20.9 20.7 20.5 20.3 20.1 20.1 28.5 34.2 53.5 103.4 184.0 259.0 342.0 305.7 130.6 37.4 28.4 26.5 25.1 24.2 23.4 22.7 22.2 21.8 21.4 21.1 20.9 20.7 20.5 20.3 20.1 20.1 25.9 27.9 32.3 52.5 88.7 113.3 170.5 154.1 58.3 28.8 26.4 25.2 24.2 23.5 22.9 22.3 21.9 21.6 21.3 21.1 20.8 20.6 20.5 20.3 20.1 20.1 23.8 26.0 27.3 30.2 38.5 48.5 61.0 50.3 29.3 26.6 25.3 24.3 23.5 23.0 22.5 22.0 21.7 21.4 21.2 20.9 20.7 20.6 20.4 20.3 20.1 20.1 20.0 20.0 20.0 20.0 20.0 20.0 20.1 20.1 20.1 20.1 20.0 20.0 20.0 20.0 20.0 20.0 20.0 20.0 20.0 20.0 20.0 20.0 20.0 20.0 20.0 20.0 20.1 20.1 20.1 20.1 20.1 20.1 20.1 20.1 20.1 20.1 20.1 20.1 20.1 20.1 20.1 20.1 20.1 20.1 20.1 20.1 20.0 20.0 20.0 20.0 20.0 20.0 20.1 20.2 20.2 20.2 20.2 20.2 20.2 20.2 20.2 20.2 20.2 20.2 20.1 20.1 20.1 20.1 20.1 20.1 20.1 20.1 20.1 20.1 20.1 20.1 20.0 20.0 20.2 20.2 20.3 20.3 20.3 20.3 20.3 20.3 20.3 20.3 20.3 20.2 20.2 20.2 20.2 20.2 20.2 20.2 20.2 20.2 20.2 20.2 20.2 20.1 20.0 20.0 20.3 20.3 20.4 20.4 20.4 20.4 20.4 20.4 20.4 20.4 20.4 20.3 20.3 20.3 20.3 20.3 20.3 20.3 20.3 20.3 20.3 20.2 20.2 20.1 20.0 20.0 20.4 20.4 20.5 20.5 20.5 20.5 20.5 20.6 20.6 20.5 20.5 20.4 20.4 20.4 20.4 20.4 20.4 20.4 20.4 20.4 20.3 20.3 20.2 20.1 20.0 20.0 20.5 20.6 20.6 20.7 20.7 20.7 20.7 20.7 20.7 20.7 20.6 20.6 20.5 20.5 20.5 20.5 20.5 20.5 20.5 20.5 20.4 20.3 20.2 20.1 20.1 20.0 20.6 20.7 20.8 20.8 20.8 20.8 20.9 20.9 20.9 20.8 20.8 20.7 20.7 20.6 20.6 20.6 20.6 20.6 20.6 20.5 20.4 20.3 20.2 20.1 20.1 20.0 20.8 20.9 21.0 21.0 21.1 21.1 21.1 21.1 21.1 21.0 20.9 20.9 20.8 20.8 20.8 20.8 20.8 20.7 20.6 20.5 20.4 20.3 20.2 20.1 20.1 20.0 20.9 21.0 21.1 21.2 21.3 21.3 21.3 21.4 21.3 21.2 21.1 21.0 21.0 21.0 20.9 20.9 20.9 20.8 20.6 20.5 20.4 20.3 20.2 20.1 20.1 20.0 21.1 21.2 21.3 21.5 21.5 21.6 21.6 21.7 21.6 21.4 21.3 21.3 21.2 21.2 21.2 21.1 21.0 20.8 20.6 20.5 20.4 20.3 20.2 20.2 20.1 20.0 21.3 21.4 21.6 21.7 21.8 21.9 22.0 22.0 21.9 21.7 21.6 21.5 21.4 21.4 21.4 21.2 21.0 20.8 20.7 20.6 20.5 20.3 20.3 20.2 20.1 20.0 21.5 21.7 21.8 22.0 22.2 22.3 22.4 22.4 22.3 22.1 21.9 21.8 21.8 21.7 21.5 21.2 21.0 20.9 20.8 20.6 20.5 20.4 20.3 20.2 20.1 20.0 21.8 22.0 22.2 22.4 22.6 22.8 23.0 22.9 22.7 22.5 22.3 22.2 22.1 21.9 21.6 21.3 21.1 21.0 20.8 20.7 20.6 20.4 20.3 20.2 20.1 20.1 22.2 22.4 22.6 22.9 23.2 23.4 23.7 23.7 23.4 23.1 22.9 22.7 22.4 22.1 21.7 21.5 21.3 21.1 20.9 20.8 20.6 20.5 20.3 20.2 20.1 20.1 22.5 22.9 23.7 24.2 24.0 24.2 24.7 24.6 24.1 23.8 23.5 23.1 22.7 22.3 21.9 21.6 21.4 21.2 21.0 20.8 20.6 20.5 20.3 20.2 20.1 20.1 23.1 23.9 26.0 26.7 25.9 27.2 28.1 26.9 25.5 24.7 24.1 23.5 23.0 22.5 22.1 21.8 21.5 21.3 21.0 20.8 20.7 20.5 20.4 20.2 20.1 20.1 23.9 26.2 30.0 30.7 28.0 30.9 34.8 31.4 27.3 25.7 24.8 24.0 23.3 22.8 22.3 21.9 21.6 21.4 21.1 20.9 20.7 20.6 20.4 20.3 20.1 20.1 25.2 32.4 43.6 45.2 35.5 44.1 59.1 51.7 36.5 27.5 25.7 24.6 23.7 23.0 22.5 22.1 21.8 21.5 21.2 21.0 20.8 20.6 20.5 20.3 20.2 20.1 29.0 55.4 87.6 91.6 66.0 101.9 157.8 129.0 67.1 30.8 26.8 25.3 24.2 23.5 22.9 22.4 22.0 21.7 21.4 21.1 20.9 20.7 20.5 20.3 20.2 20.1 32.2 67.1 121.8 162.2 143.0 204.1 299.1 229.1 105.9 41.7 28.7 26.4 25.1 24.1 23.3 22.7 22.3 21.9 21.5 21.2 21.0 20.7 20.5 20.3 20.2 20.1 32.0 59.1 124.7 209.0 212.8 272.0 368.8 271.3 117.1 46.5 30.6 27.5 26.0 24.7 23.8 23.0 22.4 22.0 21.6 21.2 21.0 20.7 20.5 20.3 20.2 20.1 32.2 63.3 136.2 218.2 215.1 276.6 377.5 293.0 129.4 41.0 30.3 27.7 26.1 24.9 23.9 23.1 22.5 22.0 21.6 21.2 21.0 20.7 20.5 20.3 20.2 20.1 31.9 60.1 112.6 168.1 182.0 229.8 310.5 248.9 103.7 34.8 28.4 26.7 25.2 24.3 23.6 22.9 22.4 21.9 21.5 21.2 21.0 20.7 20.5 20.3 20.2 20.1 29.9 46.3 62.9 80.3 106.7 127.4 154.9 117.6 45.3 28.7 26.6 25.4 24.3 23.6 23.0 22.5 22.1 21.7 21.5 21.2 20.9 20.7 20.5 20.3 20.2 20.1 25.7 35.2 38.7 34.8 40.6 49.3 50.6 40.3 29.0 26.8 25.6 24.5 23.7 23.1 22.6 22.2 21.9 21.6 21.3 21.1 20.8 20.6 20.5 20.3 20.1 20.1 20.0 20.0 20.0 20.0 20.1 20.1 20.1 20.1 20.1 20.1 20.1 20.0 20.0 20.0 20.0 20.0 20.0 20.0 20.0 20.0 20.0 20.0 20.0 20.0 20.0 20.0 20.1 20.1 20.1 20.1 20.1 20.1 20.1 20.1 20.1 20.1 20.1 20.1 20.1 20.1 20.1 20.1 20.1 20.1 20.1 20.1 20.1 20.1 20.1 20.1 20.0 20.0 20.2 20.2 20.2 20.2 20.2 20.2 20.2 20.2 20.2 20.2 20.2 20.2 20.2 20.2 20.2 20.2 20.1 20.1 20.1 20.1 20.1 20.1 20.1 20.1 20.1 20.0 20.3 20.3 20.3 20.3 20.3 20.3 20.3 20.3 20.3 20.3 20.3 20.3 20.3 20.3 20.2 20.2 20.2 20.2 20.2 20.2 20.2 20.2 20.2 20.1 20.1 20.0 20.3 20.4 20.4 20.4 20.4 20.4 20.4 20.4 20.5 20.5 20.4 20.4 20.4 20.4 20.3 20.3 20.3 20.3 20.3 20.3 20.3 20.3 20.2 20.1 20.1 20.0 20.5 20.5 20.5 20.6 20.6 20.5 20.6 20.6 20.6 20.6 20.5 20.5 20.5 20.5 20.4 20.4 20.4 20.4 20.4 20.4 20.4 20.3 20.2 20.1 20.1 20.0 20.6 20.6 20.7 20.7 20.7 20.7 20.7 20.8 20.8 20.7 20.7 20.6 20.6 20.6 20.6 20.6 20.6 20.5 20.5 20.5 20.4 20.3 20.2 20.1 20.1 20.0 20.7 20.8 20.8 20.9 20.9 20.9 20.9 21.0 21.0 20.9 20.8 20.8 20.7 20.7 20.7 20.7 20.7 20.6 20.6 20.5 20.4 20.3 20.2 20.1 20.1 20.0 20.8 20.9 21.0 21.1 21.1 21.1 21.1 21.2 21.2 21.1 21.0 21.0 20.9 20.9 20.9 20.9 20.8 20.7 20.7 20.6 20.4 20.3 20.2 20.2 20.1 20.0 21.0 21.1 21.2 21.3 21.3 21.3 21.4 21.4 21.4 21.3 21.2 21.2 21.1 21.1 21.0 21.0 20.9 20.8 20.7 20.6 20.5 20.4 20.3 20.2 20.1 20.0 21.2 21.3 21.4 21.5 21.5 21.6 21.6 21.7 21.7 21.6 21.5 21.4 21.3 21.3 21.2 21.1 21.0 20.9 20.7 20.6 20.5 20.4 20.3 20.2 20.1 20.0 21.4 21.5 21.6 21.7 21.8 21.9 22.0 22.1 22.0 21.9 21.7 21.6 21.6 21.5 21.4 21.2 21.1 20.9 20.8 20.7 20.6 20.4 20.3 20.2 20.1 20.0 21.6 21.7 21.9 22.0 22.2 22.3 22.4 22.5 22.4 22.2 22.0 21.9 21.8 21.7 21.5 21.3 21.2 21.0 20.9 20.8 20.6 20.5 20.3 20.2 20.1 20.1 21.9 22.0 22.2 22.4 22.5 22.7 22.9 23.0 22.8 22.6 22.4 22.3 22.1 21.9 21.7 21.5 21.3 21.1 21.0 20.8 20.6 20.5 20.4 20.2 20.1 20.1 22.2 22.5 22.6 22.8 23.0 23.2 23.6 23.6 23.4 23.1 22.9 22.7 22.4 22.1 21.9 21.6 21.4 21.2 21.0 20.8 20.7 20.5 20.4 20.2 20.1 20.1 22.9 23.2 23.5 23.7 23.7 23.9 24.3 24.5 24.1 23.8 23.5 23.1 22.7 22.4 22.1 21.8 21.5 21.3 21.1 20.9 20.7 20.5 20.4 20.2 20.1 20.1 24.9 25.5 25.6 25.7 25.1 25.9 26.8 26.2 25.3 24.6 24.1 23.5 23.1 22.7 22.3 21.9 21.7 21.4 21.2 20.9 20.7 20.6 20.4 20.3 20.1 20.1 27.0 29.4 30.9 28.6 25.6 27.8 30.5 29.0 26.9 25.6 24.7 24.1 23.4 22.9 22.5 22.1 21.8 21.5 21.2 21.0 20.8 20.6 20.5 20.3 20.1 20.1 30.6 40.2 45.8 38.1 28.2 31.1 37.0 35.6 31.0 27.1 25.7 24.7 23.8 23.2 22.7 22.3 22.0 21.7 21.4 21.1 20.9 20.7 20.5 20.3 20.2 20.1 47.6 84.7 107.2 80.3 50.1 68.0 82.0 67.6 46.0 29.7 26.7 25.4 24.4 23.6 23.0 22.6 22.2 21.9 21.5 21.3 21.0 20.8 20.5 20.3 20.2 20.1 60.7 117.5 170.0 142.2 100.9 159.0 200.8 151.8 85.1 41.9 28.6 26.4 25.2 24.3 23.5 22.9 22.4 22.0 21.6 21.3 21.0 20.8 20.5 20.3 20.2 20.1 59.3 115.2 188.5 178.2 129.1 201.5 271.7 199.1 98.1 47.1 30.4 27.4 26.0 24.9 23.9 23.1 22.5 22.0 21.6 21.3 21.0 20.8 20.5 20.3 20.2 20.1 56.9 121.8 202.6 185.7 116.0 172.9 247.8 189.3 90.3 39.4 30.5 27.7 26.0 24.8 23.9 23.2 22.5 22.1 21.6 21.3 21.0 20.7 20.5 20.3 20.2 20.1 45.5 104.7 171.2 165.5 129.7 157.1 190.0 143.1 69.2 33.6 28.7 26.6 25.2 24.3 23.6 23.0 22.5 22.0 21.6 21.3 21.0 20.7 20.5 20.3 20.2 20.1 32.8 65.4 95.3 97.0 98.5 101.9 96.6 66.6 36.2 28.7 26.6 25.3 24.4 23.7 23.1 22.7 22.3 21.9 21.6 21.3 21.0 20.8 20.6 20.3 20.2 20.1 26.3 39.7 45.9 38.8 37.5 40.6 38.5 33.2 29.3 26.9 25.6 24.7 23.9 23.3 22.8 22.4 22.0 21.7 21.4 21.2 20.9 20.7 20.5 20.3 20.2 20.1 20.0 20.0 20.0 20.0 20.1 20.1 20.1 20.1 20.1 20.1 20.1 20.1 20.0 20.0 20.0 20.0 20.0 20.0 20.0 20.0 20.0 20.0 20.0 20.0 20.0 20.0 20.1 20.1 20.1 20.1 20.1 20.1 20.1 20.1 20.1 20.1 20.1 20.1 20.1 20.1 20.1 20.1 20.1 20.1 20.1 20.1 20.1 20.1 20.1 20.1 20.1 20.0 20.2 20.2 20.2 20.2 20.2 20.2 20.2 20.2 20.3 20.2 20.2 20.2 20.2 20.2 20.2 20.2 20.2 20.2 20.2 20.2 20.2 20.2 20.2 20.1 20.1 20.0 20.3 20.3 20.3 20.3 20.3 20.3 20.3 20.3 20.4 20.4 20.3 20.3 20.3 20.3 20.3 20.3 20.3 20.3 20.3 20.3 20.3 20.3 20.2 20.2 20.1 20.0 20.4 20.4 20.4 20.4 20.4 20.4 20.4 20.5 20.5 20.5 20.5 20.4 20.4 20.4 20.4 20.4 20.4 20.4 20.4 20.4 20.4 20.3 20.3 20.2 20.1 20.0 20.5 20.5 20.6 20.6 20.6 20.5 20.5 20.6 20.7 20.6 20.6 20.5 20.5 20.5 20.5 20.5 20.5 20.5 20.5 20.5 20.4 20.4 20.3 20.2 20.1 20.0 20.6 20.6 20.7 20.7 20.7 20.7 20.7 20.8 20.8 20.8 20.7 20.7 20.6 20.6 20.7 20.7 20.6 20.6 20.6 20.5 20.5 20.4 20.3 20.2 20.1 20.0 20.7 20.8 20.8 20.9 20.9 20.9 20.9 21.0 21.0 21.0 20.9 20.9 20.8 20.8 20.8 20.8 20.8 20.7 20.7 20.6 20.5 20.4 20.3 20.2 20.1 20.0 20.9 20.9 21.0 21.1 21.1 21.0 21.1 21.2 21.2 21.2 21.1 21.1 21.0 21.0 21.0 20.9 20.9 20.8 20.7 20.6 20.5 20.4 20.3 20.2 20.1 20.0 21.0 21.1 21.2 21.3 21.3 21.3 21.3 21.4 21.5 21.4 21.3 21.3 21.2 21.2 21.1 21.0 21.0 20.9 20.8 20.7 20.5 20.4 20.3 20.2 20.1 20.0 21.2 21.3 21.4 21.5 21.5 21.6 21.6 21.7 21.7 21.7 21.6 21.5 21.4 21.3 21.3 21.2 21.1 21.0 20.8 20.7 20.6 20.4 20.3 20.2 20.1 20.1 21.4 21.5 21.6 21.7 21.8 21.8 22.0 22.1 22.1 22.0 21.9 21.8 21.6 21.5 21.4 21.3 21.2 21.1 20.9 20.8 20.6 20.5 20.3 20.2 20.1 20.1 21.7 21.8 21.9 22.0 22.1 22.2 22.3 22.5 22.4 22.3 22.2 22.0 21.9 21.7 21.6 21.4 21.3 21.2 21.0 20.8 20.6 20.5 20.4 20.2 20.1 20.1 22.0 22.1 22.2 22.3 22.4 22.6 22.8 22.9 22.9 22.7 22.5 22.3 22.2 22.0 21.8 21.6 21.4 21.3 21.1 20.9 20.7 20.5 20.4 20.2 20.1 20.1 22.3 22.5 22.6 22.7 22.9 23.1 23.4 23.6 23.4 23.2 23.0 22.7 22.4 22.2 21.9 21.7 21.6 21.3 21.1 20.9 20.7 20.5 20.4 20.2 20.1 20.1 23.5 24.4 24.3 23.9 23.6 23.7 24.0 24.3 24.1 23.7 23.4 23.1 22.7 22.4 22.2 21.9 21.7 21.4 21.2 20.9 20.7 20.6 20.4 20.2 20.1 20.1 27.4 28.5 27.1 25.6 24.7 25.1 25.7 25.4 25.0 24.5 23.9 23.5 23.1 22.7 22.4 22.1 21.8 21.5 21.2 21.0 20.8 20.6 20.4 20.3 20.1 20.1 32.4 32.9 29.8 25.8 25.5 26.8 27.5 27.3 26.3 25.4 24.7 24.0 23.5 23.0 22.6 22.3 21.9 21.6 21.3 21.1 20.9 20.7 20.5 20.3 20.1 20.1 43.1 47.8 39.8 31.2 32.5 32.3 30.3 31.4 29.5 26.7 25.5 24.7 23.9 23.3 22.8 22.5 22.1 21.7 21.5 21.2 21.0 20.7 20.5 20.3 20.2 20.1 84.0 111.7 90.4 59.1 67.9 74.1 56.2 48.4 41.3 29.3 26.4 25.3 24.4 23.7 23.2 22.7 22.3 21.9 21.6 21.3 21.0 20.8 20.6 20.3 20.2 20.1 116.8 167.5 144.2 97.2 133.1 172.2 143.6 111.9 76.0 37.6 27.9 26.1 25.1 24.3 23.6 23.0 22.5 22.0 21.7 21.3 21.0 20.8 20.5 20.3 20.2 20.1 121.6 175.5 161.0 112.1 155.2 205.5 185.1 142.4 85.0 41.1 29.6 27.1 25.7 24.7 23.9 23.2 22.6 22.1 21.7 21.3 21.0 20.7 20.5 20.3 20.2 20.1 116.1 179.9 171.0 105.3 120.9 150.4 134.5 108.6 66.8 37.5 30.5 27.6 25.8 24.7 23.9 23.2 22.6 22.1 21.7 21.3 21.0 20.7 20.5 20.3 20.1 20.1 80.9 145.2 164.3 125.0 116.0 115.1 92.8 73.7 52.9 34.4 29.0 26.6 25.3 24.3 23.6 23.0 22.5 22.0 21.7 21.3 21.0 20.7 20.5 20.3 20.2 20.1 42.9 78.0 106.8 102.9 88.1 73.9 59.1 45.6 37.1 29.9 26.6 25.3 24.5 23.8 23.2 22.8 22.3 21.9 21.6 21.3 21.0 20.8 20.5 20.4 20.2 20.1 26.7 37.8 46.1 43.3 38.5 36.2 35.0 33.5 30.5 27.0 25.6 24.7 24.0 23.4 22.9 22.5 22.1 21.7 21.4 21.2 20.9 20.7 20.5 20.3 20.2 20.1 20.0 20.0 20.0 20.0 20.0 20.0 20.0 20.1 20.1 20.1 20.1 20.1 20.0 20.0 20.0 20.0 20.0 20.0 20.0 20.0 20.0 20.0 20.0 20.0 20.0 20.0 20.1 20.1 20.1 20.1 20.1 20.1 20.1 20.1 20.1 20.1 20.1 20.1 20.1 20.1 20.1 20.1 20.1 20.1 20.1 20.1 20.1 20.1 20.1 20.1 20.1 20.1 20.2 20.2 20.2 20.2 20.2 20.2 20.2 20.2 20.2 20.2 20.2 20.2 20.2 20.2 20.2 20.2 20.2 20.2 20.2 20.2 20.2 20.2 20.2 20.2 20.1 20.1 20.3 20.3 20.3 20.3 20.3 20.3 20.3 20.3 20.4 20.4 20.4 20.3 20.3 20.3 20.3 20.3 20.3 20.3 20.3 20.3 20.3 20.3 20.3 20.2 20.1 20.0 20.4 20.4 20.4 20.4 20.4 20.4 20.4 20.5 20.5 20.5 20.5 20.5 20.4 20.4 20.4 20.4 20.4 20.4 20.4 20.4 20.4 20.4 20.3 20.2 20.1 20.0 20.5 20.5 20.6 20.6 20.6 20.5 20.5 20.6 20.6 20.6 20.6 20.6 20.6 20.6 20.6 20.6 20.6 20.5 20.5 20.5 20.5 20.4 20.3 20.2 20.1 20.0 20.6 20.7 20.7 20.7 20.7 20.7 20.7 20.8 20.8 20.8 20.8 20.8 20.8 20.7 20.8 20.7 20.7 20.7 20.6 20.6 20.5 20.4 20.3 20.2 20.1 20.0 20.7 20.8 20.8 20.9 20.9 20.9 20.9 21.0 21.0 21.0 21.0 21.0 21.0 20.9 20.9 20.9 20.8 20.8 20.7 20.6 20.5 20.4 20.3 20.2 20.1 20.0 20.8 20.9 21.0 21.1 21.1 21.0 21.1 21.2 21.2 21.2 21.2 21.2 21.2 21.1 21.1 21.0 20.9 20.9 20.8 20.7 20.6 20.4 20.3 20.2 20.1 20.0 21.0 21.1 21.2 21.3 21.3 21.3 21.3 21.4 21.5 21.5 21.5 21.4 21.3 21.3 21.2 21.1 21.0 20.9 20.8 20.7 20.6 20.4 20.3 20.2 20.1 20.0 21.3 21.3 21.4 21.5 21.5 21.6 21.6 21.7 21.8 21.8 21.7 21.7 21.5 21.4 21.3 21.2 21.1 21.0 20.9 20.8 20.6 20.5 20.3 20.2 20.1 20.1 21.5 21.6 21.6 21.7 21.8 21.8 22.0 22.1 22.1 22.1 22.0 21.9 21.7 21.6 21.5 21.4 21.3 21.1 21.0 20.8 20.7 20.5 20.3 20.2 20.1 20.1 21.9 21.9 22.0 22.0 22.1 22.1 22.3 22.4 22.5 22.4 22.3 22.1 21.9 21.8 21.6 21.5 21.4 21.2 21.1 20.9 20.7 20.5 20.4 20.2 20.1 20.1 22.2 22.2 22.3 22.3 22.4 22.5 22.8 22.9 22.9 22.8 22.6 22.4 22.2 22.0 21.8 21.7 21.5 21.3 21.1 20.9 20.7 20.5 20.4 20.2 20.1 20.1 22.5 22.7 22.7 22.8 22.8 23.0 23.3 23.5 23.4 23.2 23.0 22.8 22.5 22.2 22.0 21.8 21.6 21.4 21.2 20.9 20.7 20.5 20.4 20.2 20.1 20.1 23.6 24.6 24.7 24.2 23.6 23.5 23.9 24.1 24.1 23.7 23.4 23.1 22.8 22.5 22.3 22.0 21.8 21.5 21.2 21.0 20.7 20.5 20.4 20.2 20.1 20.1 27.3 29.1 28.6 26.6 24.7 24.4 24.9 25.0 24.8 24.4 23.9 23.5 23.1 22.8 22.5 22.2 21.9 21.6 21.3 21.0 20.8 20.6 20.4 20.2 20.1 20.1 34.9 34.4 30.3 27.4 26.5 25.6 26.2 26.7 26.2 25.3 24.6 24.0 23.6 23.2 22.8 22.4 22.1 21.7 21.4 21.1 20.9 20.6 20.4 20.3 20.1 20.1 49.7 48.1 35.4 32.7 36.7 31.7 29.1 31.8 29.9 26.3 25.3 24.6 24.0 23.5 23.1 22.6 22.2 21.8 21.5 21.2 21.0 20.7 20.5 20.3 20.1 20.1 94.5 100.2 65.6 57.5 75.6 64.6 48.2 51.7 45.3 28.7 26.0 25.2 24.5 23.9 23.4 22.8 22.4 22.0 21.6 21.3 21.0 20.8 20.5 20.3 20.2 20.1 138.7 157.0 105.6 94.4 129.9 128.1 114.0 106.7 75.7 33.8 27.2 25.9 25.0 24.3 23.7 23.0 22.5 22.1 21.7 21.4 21.0 20.8 20.5 20.3 20.2 20.1 157.7 180.3 128.0 117.3 158.5 161.0 151.1 130.5 83.5 37.3 29.0 26.8 25.5 24.7 23.9 23.2 22.6 22.1 21.7 21.3 21.0 20.7 20.5 20.3 20.1 20.1 151.8 183.5 133.4 112.5 143.9 131.1 109.4 95.0 67.1 38.8 31.7 28.2 25.9 24.9 24.0 23.2 22.6 22.1 21.7 21.3 21.0 20.7 20.4 20.3 20.1 20.1 101.4 150.1 144.2 124.4 119.9 94.1 72.4 65.5 57.2 40.6 31.2 27.6 25.6 24.6 23.7 23.0 22.5 22.0 21.6 21.3 21.0 20.7 20.5 20.3 20.2 20.1 49.4 86.5 112.5 103.5 82.5 64.2 54.5 49.7 45.0 34.9 27.6 25.6 24.8 24.1 23.4 22.8 22.3 21.9 21.6 21.2 21.0 20.7 20.5 20.3 20.2 20.1 27.7 40.7 49.8 46.4 41.1 37.8 37.3 36.5 32.0 27.4 25.6 24.8 24.2 23.7 23.1 22.6 22.2 21.8 21.4 21.1 20.9 20.7 20.5 20.3 20.2 20.1 20.0 20.0 20.0 20.0 20.1 20.0 20.0 20.1 20.1 20.1 20.1 20.1 20.0 20.0 20.0 20.0 20.0 20.0 20.0 20.1 20.1 20.1 20.1 20.1 20.1 20.1 20.1 20.1 20.1 20.1 20.1 20.1 20.1 20.1 20.1 20.1 20.1 20.1 20.1 20.1 20.1 20.1 20.1 20.1 20.1 20.1 20.1 20.1 20.1 20.1 20.1 20.1 20.2 20.2 20.2 20.2 20.2 20.2 20.2 20.2 20.2 20.2 20.2 20.2 20.2 20.2 20.2 20.2 20.2 20.2 20.2 20.2 20.2 20.2 20.2 20.2 20.1 20.1 20.3 20.3 20.3 20.3 20.3 20.3 20.3 20.3 20.4 20.4 20.4 20.4 20.4 20.3 20.3 20.3 20.3 20.3 20.3 20.3 20.3 20.3 20.3 20.2 20.1 20.0 20.4 20.4 20.4 20.5 20.5 20.5 20.5 20.5 20.5 20.5 20.6 20.6 20.6 20.4 20.5 20.5 20.5 20.5 20.5 20.5 20.5 20.4 20.3 20.2 20.1 20.0 20.5 20.5 20.6 20.6 20.6 20.6 20.6 20.6 20.7 20.7 20.8 20.9 20.8 20.7 20.7 20.7 20.6 20.6 20.6 20.6 20.6 20.5 20.3 20.2 20.1 20.0 20.6 20.7 20.7 20.8 20.8 20.8 20.8 20.8 20.8 20.8 20.9 21.1 21.0 20.9 20.9 20.9 20.8 20.8 20.7 20.7 20.6 20.5 20.3 20.2 20.1 20.0 20.7 20.8 20.9 21.0 21.0 21.0 21.0 21.0 21.0 21.0 21.1 21.2 21.2 21.1 21.1 21.0 20.9 20.9 20.8 20.7 20.6 20.5 20.3 20.2 20.1 20.0 20.9 20.9 21.0 21.1 21.1 21.1 21.2 21.2 21.2 21.3 21.4 21.4 21.4 21.3 21.2 21.1 21.1 21.0 20.9 20.8 20.6 20.5 20.3 20.2 20.1 20.0 21.1 21.1 21.2 21.3 21.3 21.4 21.5 21.5 21.5 21.6 21.7 21.6 21.5 21.4 21.3 21.3 21.2 21.1 20.9 20.8 20.7 20.5 20.3 20.2 20.1 20.1 21.3 21.3 21.4 21.5 21.6 21.7 21.8 21.9 21.9 22.0 22.0 21.9 21.7 21.6 21.5 21.4 21.3 21.1 21.0 20.9 20.8 20.5 20.3 20.2 20.1 20.1 21.6 21.7 21.7 21.8 21.9 22.0 22.1 22.2 22.3 22.3 22.2 22.0 21.9 21.7 21.6 21.5 21.4 21.3 21.1 21.0 20.8 20.5 20.3 20.2 20.1 20.1 22.0 22.0 22.1 22.2 22.3 22.3 22.5 22.6 22.7 22.6 22.4 22.2 22.1 21.9 21.8 21.6 21.5 21.4 21.2 21.0 20.8 20.5 20.3 20.2 20.1 20.1 22.3 22.4 22.4 22.5 22.6 22.7 22.9 23.1 23.2 23.0 22.7 22.5 22.3 22.1 21.9 21.8 21.6 21.5 21.3 21.0 20.7 20.5 20.3 20