<?xml version="1.0"?>
<VTKFile type="PolyData" version="1.0" byte_order="LittleEndian" header_type="UInt64">
<PolyData>
<Piece NumberOfPoints="127" NumberOfVerts="0" NumberOfLines="0" NumberOfPolys="0">
    <Points>
        <DataArray type="Float32" NumberOfComponents="3" format="ascii">
        16.7896 16.1818 8.3940 16.9542 16.1563 8.3940 16.7516 16.1238 8.3940 15.7871 16.0468 8.3940 15.6739 16.0040 8.3940 16.0683 16.0141 8.3940 17.7058 15.9388 8.3940 17.9158 15.8221 8.3940 17.1231 15.8500 8.3940 16.1089 15.8481 8.3940 17.4733 15.8318 8.3940 17.4296 15.8043 8.3940 15.7977 15.8042 8.3940 16.3101 15.8225 8.3940 17.4489 15.7706 8.3940 16.3945 15.6970 8.3940 16.7336 15.8008 8.3940 18.1618 15.6994 8.3940 17.8585 15.6948 8.3940 15.5436 15.7161 8.3940 17.5598 15.7051 8.3940 17.0775 15.7203 8.3940 16.9021 15.7027 8.3940 18.3749 15.6016 8.3940 15.2513 15.6189 8.3940 17.2243 15.6918 8.3940 16.6281 15.6908 8.3940 15.6653 15.6533 8.3940 17.1237 15.6752 8.3940 17.0731 15.6809 8.3940 16.8478 15.6346 8.3940 17.3276 15.6288 8.3940 16.2142 15.6337 8.3940 16.8256 15.6299 8.3940 16.0763 15.6020 8.3940 17.1814 15.6052 8.3940 17.2395 15.5409 8.3940 17.0511 15.5473 8.3940 18.3082 15.4667 8.3940 16.7641 15.5449 8.3940 17.3530 15.5163 8.3940 16.2113 15.5326 8.3940 17.2335 19.3821 6.7675 15.7043 20.9490 7.8134 17.2426 18.7699 6.8329 17.2182 17.1353 5.6495 16.0979 15.5227 8.3940 17.5609 15.4951 8.3940 17.4685 19.8051 6.4197 17.1562 18.7146 6.5141 16.2863 19.4720 6.9644 17.2267 16.6876 5.3514 17.0702 18.0813 6.1607 15.6746 19.4450 6.8628 17.9183 15.4478 8.3940 17.1130 17.0699 5.3905 15.6915 18.5010 6.3794 17.6546 15.4734 8.3940 16.9166 15.5065 8.3940 17.7006 20.1692 6.5834 17.2520 18.2757 6.0257 18.0865 15.4320 8.3940 15.3632 19.2068 6.3923 16.5866 15.4946 8.3940 19.0973 15.3488 8.3940 17.5699 17.7340 5.6853 15.0727 17.4283 4.1062 17.4588 15.4516 8.3940 15.4253 17.1737 3.8571 16.7067 15.4569 8.3940 15.6530 17.3329 4.2903 16.5639 18.8072 6.7089 16.9461 17.3668 4.9670 15.3183 15.3982 8.3940 16.7094 15.4490 8.3940 15.0505 16.8704 3.5411 16.2942 17.1201 4.6126 16.3007 15.4336 8.3940 17.4303 17.4822 5.0904 15.4917 18.4773 5.7413 16.0537 18.6573 6.6581 15.3569 18.6785 5.7194 15.3129 15.3719 8.3940 18.3025 15.3658 8.3940 17.8540 15.3805 8.3940 15.7884 15.3898 8.3940 16.9776 15.3975 8.3940 15.8189 17.3265 4.7975 15.1048 15.1919 8.3940 16.0098 15.2386 8.3940 16.5797 15.4958 2.8058 15.9129 15.4544 4.3991 15.5094 16.9850 4.1461 16.7761 15.3444 8.3940 16.7341 15.3678 8.3940 17.9892 15.2892 8.3940 15.4093 15.9064 5.2713 16.8898 15.3871 8.3940 16.6358 15.3902 8.3940 15.8086 15.3793 8.3940 16.3942 15.3833 8.3940 16.6925 15.3515 8.3940 18.5324 15.2992 8.3940 16.6018 15.3384 8.3940 15.1890 15.2935 8.3940 16.1832 15.3294 8.3940 17.1534 15.3231 8.3940 15.6452 15.3048 8.3940 16.7817 15.3240 8.3940 17.5803 15.2957 8.3940 15.5245 15.7597 3.2848 16.7754 15.3023 8.3940 17.3367 15.2878 8.3940 16.9459 15.2878 8.3940 15.9755 15.5856 3.2139 15.8295 15.2745 8.3940 15.7664 16.5080 5.3066 17.1610 15.2741 8.3940 16.3330 15.2760 8.3940 16.6677 15.2616 8.3940 16.1187 15.2338 8.3940 18.0373 15.2100 8.3940 17.0254 15.2317 8.3940 16.6214 15.2255 8.3940 17.7553 15.2147 8.3940 18.6391 15.1741 8.3940 18.0008 15.2022 8.3940 
        </DataArray>
    </Points>
    <PointData>
        <DataArray type="Float32" Name="tag" format="ascii">
            72307.0000 77383.0000 71579.0000 77399.0000 49155.0000 88727.0000 85251.0000 81735.0000 100479.0000 107555.0000 72331.0000 96679.0000 104935.0000 105603.0000 107423.0000 117311.0000 108255.0000 79967.0000 103019.0000 95295.0000 113487.0000 85955.0000 124183.0000 88559.0000 82543.0000 86979.0000 125603.0000 103031.0000 96571.0000 114927.0000 112647.0000 109119.0000 108451.0000 124747.0000 123131.0000 122503.0000 105795.0000 118095.0000 71627.0000 135891.0000 115919.0000 134059.0000 552099.0000 545291.0000 548655.0000 542811.0000 111067.0000 100215.0000 555859.0000 554051.0000 550331.0000 545363.0000 554087.0000 548599.0000 111903.0000 547535.0000 552559.0000 99327.0000 111467.0000 558411.0000 541039.0000 96771.0000 537683.0000 146323.0000 58875.0000 554243.0000 534527.0000 133483.0000 539151.0000 127259.0000 554299.0000 552115.0000 549331.0000 125771.0000 121643.0000 533023.0000 554659.0000 115667.0000 552295.0000 562163.0000 563879.0000 563743.0000 118843.0000 107339.0000 124927.0000 145459.0000 124791.0000 563251.0000 101203.0000 156707.0000 561787.0000 506923.0000 561579.0000 143583.0000 156687.0000 122375.0000 576755.0000 148479.0000 152151.0000 106639.0000 144563.0000 122671.0000 88663.0000 125739.0000 101195.0000 133275.0000 159387.0000 111923.0000 130567.0000 141879.0000 556495.0000 134535.0000 132643.0000 149219.0000 556083.0000 149111.0000 571779.0000 129935.0000 149131.0000 151935.0000 151135.0000 106583.0000 143635.0000 158667.0000 124663.0000 111919.0000 115767.0000 
         </DataArray>
    </PointData>
</Piece>
</PolyData>
</VTKFile>