<?xml version="1.0"?>
<VTKFile type="PolyData" version="1.0" byte_order="LittleEndian" header_type="UInt64">
<PolyData>
<Piece NumberOfPoints="98" NumberOfVerts="0" NumberOfLines="0" NumberOfPolys="0">
    <Points>
        <DataArray type="Float32" NumberOfComponents="3" format="ascii">
        14.8839 6.6666 6.0229 14.5936 7.7443 4.2574 14.6252 8.7581 2.3975 14.6983 8.8414 3.2626 14.0384 8.0423 4.8106 14.8161 7.1245 5.2873 14.1608 8.4847 4.4678 14.1007 8.5252 4.5086 14.7610 9.2579 1.8586 14.5116 8.2216 4.6834 13.9987 8.3238 4.6852 14.2812 6.8997 4.9472 14.8299 7.0794 4.8032 11.0834 3.8094 7.4440 13.5985 7.7835 5.6227 12.3151 6.3583 6.7841 14.6398 6.9252 5.6816 13.2046 9.0941 5.0298 14.4417 3.1834 6.0566 13.8058 6.9118 5.6463 14.6960 7.7510 3.4800 14.7432 8.0722 3.1794 14.5714 9.5899 3.1683 14.3641 7.6508 4.7821 14.1679 6.3019 5.4216 13.6054 10.0365 2.6913 14.0525 7.3780 6.1638 13.2807 6.4419 6.6052 14.2789 9.0108 5.6934 13.3722 6.3064 6.5629 14.6314 10.4155 4.1965 14.6917 10.0273 3.7732 13.7560 7.5211 6.2531 14.2957 8.4905 5.7941 14.2255 7.9716 5.4222 14.4317 9.5094 5.6129 14.2193 9.5353 5.9188 14.7398 9.6411 2.8078 14.6308 10.4353 3.8259 14.4273 10.1380 5.3876 14.5622 10.5931 5.1339 14.2099 8.5878 5.7253 14.4341 7.7462 4.7166 14.5505 7.5233 4.9447 14.3222 8.8690 5.4804 14.2753 6.5131 6.0483 14.2833 8.6760 5.5051 14.7580 10.6273 4.9815 14.6878 9.4050 4.4250 14.4510 9.5293 5.6573 13.9592 6.5083 5.9934 14.7312 11.1085 2.8299 14.6184 8.1373 3.4055 14.6196 9.6044 5.4839 14.7331 10.3168 4.9067 14.4305 7.1266 4.9376 14.9097 7.4870 5.0166 14.8702 8.0096 4.3233 14.7912 9.7278 4.5789 14.2681 6.4266 5.9332 14.5589 7.8644 4.9954 14.7527 7.6706 4.5138 14.7882 10.1681 3.7046 14.6562 9.8466 5.2264 14.6693 9.7807 5.2384 14.6888 9.3732 4.9192 12.7308 4.3425 7.6933 14.6448 9.3581 2.0126 14.6074 10.8578 2.9397 14.6015 6.8676 4.8021 14.7756 9.9899 4.8016 14.9712 10.5695 4.3319 13.9208 7.8605 5.8626 13.1654 4.1791 7.7361 14.7173 10.9693 3.2441 14.9184 10.0552 4.0680 14.7954 9.8032 4.9331 13.1130 5.1591 7.3642 14.5289 6.8556 5.4521 14.1805 7.6639 5.6438 14.4563 7.6965 5.4477 14.1056 7.9858 5.9143 14.7493 8.7325 4.9308 14.7197 7.5436 3.6341 14.8324 9.5212 2.9743 14.9263 9.7735 4.1989 14.2262 8.3064 5.8899 14.1617 8.1470 5.9403 14.3900 8.2341 5.6229 14.5953 6.5483 5.0361 14.9602 9.9502 4.2635 14.7753 9.4179 3.3479 14.4913 8.5622 5.5241 14.5330 6.6090 6.2955 14.2883 5.1075 7.3529 14.7567 7.6778 6.0937 13.7318 7.0424 7.3531 14.4564 8.7676 6.6433 
        </DataArray>
    </Points>
    <PointData>
        <DataArray type="Float32" Name="tag" format="ascii">
            19307.0000 21911.0000 29411.0000 21751.0000 15139.0000 30607.0000 18383.0000 20847.0000 26923.0000 18851.0000 28435.0000 33571.0000 33583.0000 25915.0000 29691.0000 21271.0000 14587.0000 77379.0000 39535.0000 98559.0000 98595.0000 98871.0000 94755.0000 97267.0000 97911.0000 83411.0000 79995.0000 80015.0000 87707.0000 84131.0000 87007.0000 90251.0000 83247.0000 82583.0000 95439.0000 89335.0000 84467.0000 91747.0000 93035.0000 81067.0000 81147.0000 92131.0000 96599.0000 97043.0000 91423.0000 92939.0000 92919.0000 85379.0000 86103.0000 87995.0000 86623.0000 85095.0000 98071.0000 81939.0000 89763.0000 98111.0000 89511.0000 91723.0000 91979.0000 93455.0000 93683.0000 97051.0000 92615.0000 84223.0000 82459.0000 92023.0000 88435.0000 97011.0000 91931.0000 99923.0000 76475.0000 79439.0000 89155.0000 90599.0000 90727.0000 80799.0000 85919.0000 92787.0000 95467.0000 93607.0000 94843.0000 91279.0000 89787.0000 100971.0000 97023.0000 94547.0000 77883.0000 84863.0000 93471.0000 101819.0000 86035.0000 81447.0000 84967.0000 84695.0000 78047.0000 77663.0000 144403.0000 141215.0000 
         </DataArray>
    </PointData>
</Piece>
</PolyData>
</VTKFile>