<?xml version="1.0"?>
<VTKFile type="RectilinearGrid" version="1.0" byte_order="LittleEndian" header_type="UInt64">
<RectilinearGrid WholeExtent="25 50 0 25 0 15">
<Piece Extent="25 50 0 25 0 15">
<Coordinates>
<DataArray type="Float64" Name="Array X-Axis" format="ascii" RangeMin="15.0" RangeMax="30.0">
15.0 15.6 16.2 16.8 17.4 18.0 18.6 19.2 19.8 20.4 21.0 21.6 22.2 22.8 23.4 24.0 24.6 25.2 25.8 26.4 27.0 27.6 28.2 28.8 29.4 30.0 
</DataArray>
<DataArray type="Float64" Name="Array Y-Axis" format="ascii" RangeMin="0.0" RangeMax="15.0">
0.0 0.6 1.2 1.8 2.4 3.0 3.6 4.2 4.8 5.4 6.0 6.6 7.2 7.8 8.4 9.0 9.6 10.2 10.8 11.4 12.0 12.6 13.2 13.8 14.4 15.0 
</DataArray>
<DataArray type="Float64" Name="Array Z-Axis" format="ascii" RangeMin="0.0" RangeMax="9.0">
0.0 0.6 1.2 1.8 2.4 3.0 3.6 4.2 4.8 5.4 6.0 6.6 7.2 7.8 8.4 9.0 
</DataArray>
</Coordinates>
<PointData>
<DataArray Name="TEMPERATURE" NumberOfComponents="1" type="Float64" format="ascii">
20.0 20.0 20.0 20.0 20.0 20.0 20.0 20.0 20.0 20.0 20.0 20.0 20.0 20.0 20.0 20.0 20.0 20.0 20.1 20.1 20.1 20.1 20.1 20.1 20.1 20.1 20.1 20.1 20.1 20.1 20.1 20.1 20.1 20.1 20.1 20.1 20.1 20.1 20.1 20.1 20.1 20.1 20.1 20.1 20.1 20.1 20.1 20.1 20.1 20.1 20.1 20.1 20.2 20.2 20.2 20.2 20.2 20.2 20.2 20.2 20.2 20.2 20.2 20.2 20.2 20.2 20.2 20.2 20.2 20.2 20.2 20.2 20.2 20.2 20.2 20.2 20.1 20.1 20.3 20.3 20.3 20.3 20.3 20.3 20.3 20.3 20.4 20.4 20.4 20.3 20.3 20.3 20.3 20.3 20.3 20.3 20.3 20.3 20.3 20.2 20.2 20.2 20.1 20.1 20.4 20.4 20.5 20.5 20.5 20.5 20.5 20.5 20.6 20.6 20.5 20.5 20.4 20.4 20.4 20.4 20.4 20.4 20.3 20.3 20.3 20.3 20.2 20.2 20.1 20.1 20.5 20.5 20.6 20.6 20.7 20.7 20.6 20.7 20.7 20.7 20.7 20.6 20.5 20.5 20.5 20.5 20.5 20.4 20.4 20.3 20.3 20.3 20.3 20.2 20.1 20.1 20.6 20.6 20.7 20.8 20.8 20.8 20.8 20.8 20.9 20.9 20.8 20.7 20.6 20.6 20.6 20.5 20.5 20.5 20.4 20.4 20.4 20.3 20.3 20.2 20.1 20.1 20.6 20.7 20.8 20.9 20.9 21.0 21.0 21.0 21.0 21.0 20.9 20.8 20.7 20.7 20.7 20.6 20.6 20.5 20.5 20.4 20.4 20.4 20.3 20.2 20.1 20.1 20.7 20.8 20.9 21.0 21.1 21.1 21.1 21.2 21.2 21.1 21.0 20.9 20.8 20.8 20.7 20.7 20.6 20.6 20.5 20.5 20.4 20.4 20.3 20.2 20.1 20.1 20.8 20.9 21.0 21.2 21.3 21.3 21.4 21.4 21.4 21.2 21.1 21.0 21.0 20.9 20.8 20.8 20.7 20.6 20.6 20.5 20.5 20.4 20.4 20.2 20.1 20.0 21.0 21.1 21.2 21.3 21.5 21.6 21.6 21.6 21.6 21.4 21.3 21.2 21.1 21.0 21.0 20.9 20.8 20.7 20.6 20.6 20.5 20.5 20.4 20.2 20.1 20.0 21.1 21.2 21.4 21.6 21.7 21.9 21.9 21.9 21.8 21.6 21.5 21.3 21.3 21.2 21.1 21.0 20.9 20.8 20.7 20.7 20.6 20.5 20.4 20.2 20.1 20.0 21.3 21.4 21.6 21.8 22.0 22.2 22.3 22.3 22.1 21.9 21.7 21.6 21.4 21.3 21.2 21.1 21.0 20.9 20.8 20.7 20.6 20.5 20.4 20.2 20.1 20.0 21.4 21.6 21.8 22.1 22.3 22.6 22.7 22.7 22.4 22.1 21.9 21.8 21.6 21.5 21.3 21.2 21.1 21.0 20.9 20.8 20.7 20.5 20.4 20.2 20.1 20.0 21.6 21.8 22.1 22.4 22.7 23.0 23.3 23.1 22.8 22.5 22.3 22.0 21.9 21.7 21.5 21.3 21.2 21.1 20.9 20.8 20.7 20.5 20.4 20.2 20.1 20.0 21.9 22.1 22.4 22.7 23.2 23.7 24.0 23.8 23.3 22.9 22.6 22.3 22.1 21.9 21.7 21.5 21.3 21.1 21.0 20.9 20.7 20.6 20.4 20.2 20.1 20.0 22.2 22.4 22.8 23.3 23.8 24.4 24.9 24.6 23.9 23.4 23.0 22.7 22.4 22.1 21.8 21.6 21.4 21.2 21.1 20.9 20.8 20.6 20.4 20.2 20.1 20.1 22.5 22.8 23.3 23.8 24.3 25.2 26.5 26.2 24.7 23.9 23.5 23.0 22.6 22.3 22.0 21.7 21.5 21.3 21.2 21.0 20.8 20.6 20.4 20.2 20.1 20.1 22.9 23.3 23.8 24.4 25.1 27.3 35.0 34.9 26.9 24.8 24.1 23.5 23.0 22.6 22.2 21.9 21.7 21.5 21.3 21.1 20.9 20.7 20.5 20.3 20.1 20.1 23.5 24.2 25.2 26.4 30.0 41.7 58.9 56.7 37.3 27.3 25.1 24.1 23.5 23.0 22.6 22.2 21.9 21.7 21.5 21.2 21.0 20.7 20.5 20.3 20.1 20.1 24.5 25.5 27.0 29.4 34.0 54.5 75.3 62.9 42.3 29.0 26.1 24.9 24.2 23.5 22.9 22.5 22.1 21.8 21.5 21.3 21.0 20.7 20.4 20.2 20.1 20.1 25.0 26.3 27.6 30.7 33.1 20.0 20.0 43.1 36.7 28.8 26.7 25.5 24.5 23.7 23.1 22.6 22.2 21.8 21.5 21.2 20.9 20.7 20.4 20.2 20.1 20.1 24.6 25.9 27.3 29.9 32.0 20.0 20.0 37.6 33.3 28.0 26.4 25.3 24.2 23.6 23.1 22.5 22.1 21.8 21.5 21.2 20.9 20.7 20.4 20.2 20.1 20.1 23.8 25.0 26.3 29.0 31.7 33.1 32.3 31.8 29.6 26.4 25.4 24.7 23.8 23.2 22.8 22.3 22.0 21.8 21.5 21.2 21.0 20.7 20.4 20.2 20.1 20.1 23.1 23.9 24.7 26.9 29.4 30.5 29.9 28.0 26.2 25.0 24.4 23.9 23.2 22.7 22.4 22.0 21.8 21.6 21.4 21.2 20.9 20.7 20.4 20.3 20.1 20.1 22.1 23.2 23.7 24.7 25.9 26.8 26.8 25.9 24.8 24.2 23.6 23.2 22.7 22.3 22.0 21.7 21.5 21.4 21.2 21.0 20.8 20.6 20.4 20.2 20.1 20.1 20.0 20.0 20.0 20.0 20.0 20.0 20.0 20.0 20.0 20.0 20.0 20.0 20.0 20.0 20.0 20.0 20.0 20.0 20.0 20.1 20.1 20.1 20.1 20.1 20.1 20.1 20.1 20.1 20.1 20.1 20.1 20.1 20.1 20.1 20.1 20.1 20.1 20.1 20.1 20.1 20.1 20.1 20.1 20.1 20.1 20.1 20.1 20.1 20.1 20.1 20.1 20.1 20.1 20.2 20.2 20.2 20.2 20.2 20.2 20.2 20.2 20.2 20.2 20.2 20.2 20.2 20.2 20.2 20.2 20.2 20.2 20.2 20.2 20.2 20.2 20.2 20.1 20.1 20.3 20.3 20.3 20.3 20.3 20.3 20.3 20.3 20.4 20.4 20.4 20.3 20.3 20.3 20.3 20.3 20.3 20.3 20.3 20.2 20.2 20.2 20.2 20.2 20.1 20.1 20.4 20.4 20.4 20.5 20.5 20.5 20.5 20.5 20.5 20.5 20.5 20.5 20.4 20.4 20.4 20.4 20.4 20.3 20.3 20.3 20.3 20.2 20.2 20.2 20.1 20.1 20.5 20.5 20.6 20.6 20.6 20.6 20.6 20.7 20.7 20.7 20.6 20.6 20.5 20.5 20.5 20.4 20.4 20.4 20.3 20.3 20.3 20.3 20.2 20.2 20.1 20.1 20.5 20.6 20.7 20.7 20.8 20.8 20.8 20.8 20.9 20.8 20.7 20.6 20.6 20.6 20.5 20.5 20.5 20.4 20.4 20.3 20.3 20.3 20.3 20.2 20.1 20.1 20.6 20.7 20.8 20.9 20.9 20.9 21.0 21.0 21.0 20.9 20.8 20.7 20.7 20.6 20.6 20.6 20.5 20.5 20.4 20.4 20.4 20.3 20.3 20.2 20.1 20.1 20.7 20.8 20.9 21.0 21.1 21.1 21.1 21.2 21.2 21.1 21.0 20.9 20.8 20.7 20.7 20.6 20.6 20.5 20.5 20.4 20.4 20.4 20.3 20.2 20.1 20.0 20.8 20.9 21.0 21.2 21.3 21.3 21.4 21.4 21.4 21.2 21.1 21.0 20.9 20.9 20.8 20.7 20.7 20.6 20.5 20.5 20.4 20.4 20.3 20.2 20.1 20.0 20.9 21.1 21.2 21.3 21.5 21.6 21.7 21.7 21.6 21.4 21.3 21.2 21.1 21.0 20.9 20.8 20.8 20.7 20.6 20.5 20.5 20.4 20.3 20.2 20.1 20.0 21.1 21.2 21.4 21.6 21.8 21.9 22.0 22.0 21.8 21.6 21.5 21.3 21.2 21.1 21.0 20.9 20.8 20.8 20.7 20.6 20.5 20.5 20.4 20.2 20.1 20.0 21.2 21.4 21.6 21.8 22.1 22.3 22.4 22.4 22.2 21.9 21.7 21.6 21.4 21.3 21.2 21.1 20.9 20.8 20.8 20.7 20.6 20.5 20.4 20.2 20.1 20.0 21.5 21.6 21.9 22.2 22.5 22.7 22.9 22.8 22.5 22.2 22.0 21.8 21.7 21.5 21.3 21.2 21.1 20.9 20.8 20.7 20.6 20.5 20.4 20.2 20.1 20.0 21.7 21.9 22.2 22.6 23.0 23.3 23.5 23.4 23.0 22.6 22.3 22.1 21.9 21.7 21.5 21.3 21.2 21.0 20.9 20.8 20.7 20.5 20.4 20.2 20.1 20.0 22.0 22.3 22.6 23.0 23.5 23.9 24.3 24.1 23.5 23.1 22.7 22.5 22.2 21.9 21.7 21.5 21.3 21.1 21.0 20.8 20.7 20.5 20.4 20.2 20.1 20.0 22.3 22.6 23.1 23.6 24.3 25.0 25.5 25.2 24.4 23.7 23.2 22.8 22.5 22.2 21.9 21.6 21.4 21.2 21.0 20.9 20.7 20.6 20.4 20.2 20.1 20.0 22.6 23.0 23.6 24.5 25.2 26.6 32.1 32.0 26.1 24.3 23.7 23.2 22.8 22.4 22.1 21.8 21.5 21.3 21.2 21.0 20.8 20.6 20.4 20.2 20.1 20.1 23.0 23.6 24.3 25.5 26.9 39.6 79.1 76.5 36.1 25.4 24.4 23.7 23.2 22.7 22.3 22.0 21.7 21.5 21.3 21.1 20.9 20.7 20.5 20.3 20.1 20.1 23.7 24.7 27.1 29.9 34.5 84.3 161.2 135.2 54.1 27.8 25.3 24.4 23.7 23.2 22.7 22.3 22.0 21.7 21.5 21.2 21.0 20.7 20.5 20.3 20.1 20.1 24.9 26.5 30.0 35.8 50.1 159.6 264.2 163.3 56.5 30.1 26.5 25.2 24.4 23.7 23.1 22.6 22.2 21.8 21.5 21.3 21.0 20.7 20.4 20.2 20.1 20.1 25.5 27.1 29.7 35.9 71.8 282.2 383.4 150.8 45.6 30.7 27.3 25.9 24.8 24.0 23.3 22.7 22.3 21.9 21.5 21.2 20.9 20.7 20.4 20.2 20.1 20.1 25.0 26.4 29.1 34.4 73.7 252.6 338.9 140.9 42.1 29.7 27.0 25.7 24.6 23.8 23.3 22.7 22.2 21.9 21.5 21.2 20.9 20.7 20.4 20.2 20.1 20.1 24.2 25.3 28.3 35.2 52.4 89.5 126.2 86.1 36.1 27.4 25.8 24.9 24.0 23.3 22.9 22.4 22.1 21.8 21.5 21.2 21.0 20.7 20.4 20.2 20.1 20.1 23.4 24.1 25.8 31.4 35.8 35.5 34.3 31.3 27.6 25.5 24.7 24.0 23.4 22.8 22.4 22.1 21.8 21.6 21.4 21.2 20.9 20.7 20.4 20.2 20.1 20.1 22.3 23.5 24.2 26.0 27.6 28.0 27.7 26.6 25.4 24.6 23.9 23.4 22.9 22.5 22.1 21.8 21.6 21.4 21.2 21.0 20.8 20.6 20.4 20.2 20.1 20.1 20.0 20.0 20.0 20.0 20.0 20.0 20.0 20.0 20.0 20.0 20.0 20.0 20.0 20.0 20.0 20.0 20.0 20.0 20.0 20.0 20.1 20.1 20.1 20.1 20.1 20.1 20.1 20.1 20.1 20.1 20.1 20.1 20.1 20.1 20.1 20.1 20.1 20.1 20.1 20.1 20.1 20.1 20.1 20.1 20.1 20.1 20.1 20.1 20.1 20.1 20.1 20.1 20.1 20.1 20.1 20.2 20.2 20.2 20.2 20.2 20.2 20.2 20.2 20.2 20.2 20.2 20.2 20.2 20.2 20.2 20.2 20.2 20.1 20.1 20.1 20.1 20.1 20.1 20.2 20.2 20.3 20.3 20.3 20.3 20.3 20.3 20.3 20.3 20.3 20.3 20.3 20.3 20.3 20.2 20.2 20.2 20.2 20.2 20.2 20.2 20.1 20.1 20.1 20.1 20.3 20.4 20.4 20.4 20.5 20.5 20.5 20.5 20.5 20.5 20.5 20.4 20.4 20.3 20.3 20.3 20.3 20.3 20.3 20.2 20.2 20.2 20.2 20.1 20.1 20.1 20.4 20.5 20.5 20.6 20.6 20.6 20.6 20.6 20.7 20.6 20.6 20.5 20.5 20.4 20.4 20.4 20.3 20.3 20.3 20.3 20.2 20.2 20.2 20.2 20.1 20.1 20.5 20.5 20.6 20.7 20.7 20.7 20.8 20.8 20.8 20.8 20.7 20.6 20.5 20.5 20.5 20.4 20.4 20.4 20.3 20.3 20.3 20.2 20.2 20.2 20.1 20.0 20.6 20.6 20.7 20.8 20.9 20.9 20.9 21.0 21.0 20.9 20.8 20.7 20.6 20.6 20.5 20.5 20.5 20.4 20.4 20.3 20.3 20.3 20.2 20.2 20.1 20.0 20.7 20.7 20.8 21.0 21.0 21.1 21.1 21.2 21.1 21.0 20.9 20.8 20.7 20.7 20.6 20.6 20.5 20.5 20.4 20.4 20.3 20.3 20.3 20.2 20.1 20.0 20.8 20.9 21.0 21.1 21.3 21.4 21.4 21.4 21.3 21.2 21.1 21.0 20.9 20.8 20.7 20.7 20.6 20.5 20.5 20.4 20.4 20.3 20.3 20.2 20.1 20.0 20.9 21.0 21.2 21.4 21.5 21.6 21.7 21.7 21.6 21.4 21.3 21.1 21.0 21.0 20.9 20.8 20.7 20.6 20.5 20.5 20.4 20.4 20.3 20.2 20.1 20.0 21.1 21.2 21.4 21.6 21.8 22.0 22.1 22.1 21.9 21.7 21.5 21.3 21.2 21.1 21.0 20.9 20.8 20.7 20.6 20.5 20.5 20.4 20.3 20.2 20.1 20.0 21.2 21.4 21.7 22.0 22.2 22.5 22.6 22.6 22.3 22.0 21.8 21.6 21.4 21.3 21.1 21.0 20.9 20.8 20.7 20.6 20.5 20.4 20.3 20.2 20.1 20.0 21.5 21.7 22.0 22.4 22.7 23.0 23.2 23.1 22.7 22.4 22.1 21.9 21.7 21.5 21.3 21.2 21.0 20.9 20.8 20.7 20.6 20.5 20.3 20.2 20.1 20.0 21.7 22.0 22.4 22.9 23.3 23.7 23.9 23.8 23.3 22.9 22.5 22.2 22.0 21.7 21.5 21.3 21.1 21.0 20.8 20.7 20.6 20.5 20.3 20.2 20.1 20.0 22.1 22.5 23.0 23.5 24.2 24.9 25.7 25.1 24.0 23.5 23.0 22.6 22.3 22.0 21.7 21.5 21.3 21.1 20.9 20.8 20.6 20.5 20.3 20.2 20.1 20.0 22.4 22.9 23.6 24.4 25.4 27.0 28.2 27.7 25.6 24.1 23.6 23.1 22.7 22.3 21.9 21.7 21.4 21.2 21.0 20.8 20.7 20.5 20.4 20.2 20.1 20.0 22.9 23.5 24.6 27.2 28.9 30.1 36.1 35.8 28.4 25.2 24.2 23.6 23.1 22.6 22.2 21.8 21.6 21.3 21.1 21.0 20.8 20.6 20.4 20.2 20.1 20.0 23.4 24.3 26.4 34.7 38.7 49.1 94.5 93.1 43.7 26.7 25.0 24.2 23.6 23.0 22.5 22.1 21.8 21.5 21.3 21.1 20.9 20.7 20.4 20.2 20.1 20.1 24.1 25.6 32.1 46.7 57.3 122.0 223.4 188.2 72.9 28.8 26.0 25.0 24.2 23.5 22.9 22.4 22.1 21.7 21.5 21.2 21.0 20.7 20.5 20.2 20.1 20.1 25.4 27.8 36.5 57.5 99.8 237.1 352.5 259.4 99.1 33.6 27.7 26.1 24.9 24.1 23.4 22.8 22.3 21.9 21.6 21.3 21.0 20.7 20.4 20.2 20.1 20.1 26.3 29.2 35.6 56.8 141.1 327.1 410.1 262.2 95.6 35.8 28.9 26.9 25.5 24.5 23.7 23.0 22.4 22.0 21.6 21.3 21.0 20.7 20.4 20.2 20.1 20.1 26.0 28.5 35.7 59.8 143.6 301.1 372.5 224.4 66.5 32.6 28.3 26.6 25.3 24.3 23.6 22.9 22.4 21.9 21.6 21.2 21.0 20.7 20.4 20.2 20.1 20.1 24.9 26.3 32.9 62.3 104.8 154.3 202.0 137.2 42.9 29.0 26.7 25.5 24.5 23.7 23.1 22.6 22.2 21.8 21.5 21.2 21.0 20.7 20.4 20.2 20.1 20.1 23.8 24.8 27.4 43.3 53.5 48.6 53.9 47.4 30.8 26.6 25.4 24.5 23.7 23.1 22.6 22.2 21.9 21.6 21.4 21.2 20.9 20.7 20.4 20.2 20.1 20.1 22.6 24.1 25.2 27.7 30.1 30.5 30.5 28.9 26.6 25.4 24.6 23.8 23.2 22.7 22.3 21.9 21.6 21.4 21.2 21.0 20.8 20.6 20.4 20.2 20.1 20.1 20.0 20.0 20.0 20.0 20.0 20.0 20.0 20.0 20.0 20.0 20.0 20.0 20.0 20.0 20.0 20.0 20.0 20.0 20.0 20.0 20.0 20.1 20.1 20.1 20.1 20.1 20.1 20.1 20.1 20.1 20.1 20.1 20.1 20.1 20.1 20.1 20.1 20.1 20.1 20.1 20.1 20.1 20.1 20.1 20.1 20.1 20.1 20.1 20.1 20.1 20.1 20.1 20.1 20.1 20.2 20.2 20.2 20.2 20.2 20.2 20.2 20.2 20.2 20.2 20.2 20.2 20.2 20.2 20.2 20.2 20.2 20.1 20.1 20.1 20.1 20.1 20.1 20.1 20.2 20.2 20.3 20.3 20.3 20.3 20.3 20.3 20.4 20.4 20.3 20.3 20.3 20.3 20.2 20.2 20.2 20.2 20.2 20.2 20.2 20.1 20.1 20.1 20.1 20.1 20.3 20.4 20.4 20.4 20.5 20.5 20.5 20.5 20.5 20.5 20.5 20.4 20.4 20.3 20.3 20.3 20.3 20.3 20.2 20.2 20.2 20.2 20.2 20.1 20.1 20.1 20.4 20.5 20.5 20.6 20.6 20.6 20.6 20.7 20.7 20.6 20.6 20.5 20.4 20.4 20.4 20.4 20.3 20.3 20.3 20.2 20.2 20.2 20.2 20.1 20.1 20.1 20.5 20.5 20.6 20.7 20.7 20.8 20.8 20.8 20.8 20.8 20.7 20.6 20.5 20.5 20.5 20.4 20.4 20.3 20.3 20.3 20.2 20.2 20.2 20.1 20.1 20.0 20.6 20.6 20.7 20.8 20.9 20.9 21.0 21.0 21.0 20.9 20.8 20.7 20.6 20.6 20.5 20.5 20.4 20.4 20.4 20.3 20.3 20.2 20.2 20.2 20.1 20.0 20.7 20.8 20.9 21.0 21.1 21.1 21.2 21.2 21.2 21.1 20.9 20.8 20.7 20.7 20.6 20.6 20.5 20.5 20.4 20.4 20.3 20.3 20.2 20.2 20.1 20.0 20.8 20.9 21.0 21.2 21.3 21.4 21.5 21.5 21.4 21.2 21.1 21.0 20.9 20.8 20.7 20.7 20.6 20.5 20.5 20.4 20.4 20.3 20.3 20.2 20.1 20.0 20.9 21.1 21.2 21.4 21.5 21.7 21.8 21.8 21.7 21.5 21.3 21.2 21.1 21.0 20.9 20.8 20.7 20.6 20.5 20.5 20.4 20.4 20.3 20.2 20.1 20.0 21.1 21.2 21.5 21.7 21.9 22.1 22.2 22.2 22.0 21.7 21.5 21.4 21.3 21.1 21.0 20.9 20.8 20.7 20.6 20.5 20.5 20.4 20.3 20.2 20.1 20.0 21.3 21.5 21.7 22.0 22.3 22.5 22.7 22.7 22.4 22.1 21.8 21.6 21.5 21.3 21.2 21.0 20.9 20.8 20.7 20.6 20.5 20.4 20.3 20.2 20.1 20.0 21.5 21.7 22.1 22.4 22.8 23.1 23.4 23.3 22.9 22.5 22.2 22.0 21.8 21.5 21.4 21.2 21.0 20.9 20.8 20.7 20.6 20.4 20.3 20.2 20.1 20.0 21.8 22.1 22.5 23.0 23.5 23.9 24.2 24.1 23.5 23.0 22.7 22.3 22.1 21.8 21.6 21.4 21.2 21.0 20.8 20.7 20.6 20.5 20.3 20.2 20.1 20.0 22.1 22.6 23.2 23.8 24.4 25.3 26.3 25.8 24.4 23.7 23.2 22.8 22.4 22.1 21.8 21.5 21.3 21.1 20.9 20.8 20.6 20.5 20.3 20.2 20.1 20.0 22.4 23.1 24.4 25.2 26.4 29.1 31.2 30.0 26.5 24.5 23.8 23.3 22.8 22.4 22.0 21.7 21.4 21.2 21.0 20.8 20.7 20.5 20.4 20.2 20.1 20.0 22.9 23.9 26.5 29.5 31.2 34.2 37.3 35.6 30.5 26.4 24.6 23.9 23.3 22.8 22.3 21.9 21.6 21.4 21.1 21.0 20.8 20.6 20.4 20.2 20.1 20.0 23.6 26.1 32.6 43.7 46.2 47.0 59.7 58.0 39.5 28.2 25.6 24.6 23.9 23.2 22.7 22.2 21.9 21.6 21.3 21.1 20.9 20.7 20.5 20.3 20.1 20.1 24.6 30.9 50.1 74.4 79.8 109.5 156.3 130.2 61.9 29.6 26.8 25.6 24.6 23.8 23.1 22.6 22.1 21.8 21.5 21.2 21.0 20.7 20.5 20.3 20.1 20.1 26.4 35.1 66.3 113.1 157.7 249.1 319.6 249.6 109.6 35.4 29.1 27.0 25.6 24.5 23.6 23.0 22.4 22.0 21.6 21.3 21.0 20.7 20.5 20.2 20.1 20.1 27.9 35.8 63.8 124.7 223.5 357.3 419.5 308.3 127.6 39.2 30.6 27.9 26.3 25.0 24.0 23.2 22.6 22.0 21.6 21.3 21.0 20.7 20.4 20.2 20.1 20.1 27.8 35.1 68.7 135.3 223.1 339.5 396.0 261.2 88.9 36.9 30.5 27.5 26.0 24.8 23.9 23.1 22.5 22.0 21.6 21.3 21.0 20.7 20.4 20.2 20.1 20.1 26.0 30.5 56.7 111.1 155.3 207.5 256.0 173.0 58.0 32.6 28.4 26.2 25.1 24.2 23.4 22.8 22.3 21.9 21.6 21.3 21.0 20.7 20.5 20.2 20.1 20.1 24.3 25.8 30.3 49.4 65.6 76.2 99.4 82.4 40.9 28.1 26.1 25.0 24.1 23.4 22.9 22.4 22.0 21.7 21.4 21.2 20.9 20.7 20.4 20.2 20.1 20.1 22.8 24.5 25.9 28.1 30.8 34.0 37.7 34.7 28.4 26.2 25.1 24.2 23.5 22.9 22.4 22.0 21.7 21.4 21.2 21.0 20.8 20.6 20.4 20.2 20.1 20.0 20.0 20.0 20.0 20.0 20.0 20.0 20.0 20.0 20.0 20.0 20.0 20.0 20.0 20.0 20.0 20.0 20.0 20.0 20.1 20.1 20.1 20.1 20.1 20.1 20.1 20.1 20.1 20.1 20.1 20.1 20.1 20.1 20.1 20.1 20.1 20.1 20.1 20.1 20.1 20.1 20.1 20.1 20.1 20.1 20.1 20.1 20.1 20.1 20.1 20.1 20.1 20.1 20.2 20.2 20.2 20.2 20.2 20.2 20.2 20.2 20.2 20.2 20.2 20.2 20.2 20.2 20.2 20.2 20.2 20.2 20.2 20.2 20.2 20.1 20.1 20.1 20.1 20.1 20.3 20.3 20.3 20.3 20.3 20.3 20.3 20.4 20.4 20.4 20.4 20.3 20.3 20.3 20.3 20.3 20.3 20.3 20.2 20.2 20.2 20.2 20.2 20.1 20.1 20.1 20.4 20.4 20.5 20.5 20.5 20.5 20.5 20.6 20.6 20.6 20.5 20.4 20.4 20.4 20.4 20.3 20.3 20.3 20.3 20.2 20.2 20.2 20.2 20.1 20.1 20.1 20.4 20.5 20.6 20.6 20.7 20.6 20.7 20.7 20.7 20.7 20.6 20.5 20.5 20.5 20.4 20.4 20.4 20.3 20.3 20.3 20.2 20.2 20.2 20.2 20.1 20.1 20.5 20.6 20.7 20.8 20.8 20.8 20.8 20.9 20.9 20.8 20.7 20.6 20.6 20.5 20.5 20.5 20.4 20.4 20.3 20.3 20.3 20.3 20.2 20.2 20.1 20.1 20.6 20.7 20.8 20.9 20.9 21.0 21.0 21.1 21.1 21.0 20.8 20.7 20.7 20.6 20.6 20.5 20.5 20.4 20.4 20.4 20.3 20.3 20.2 20.2 20.1 20.1 20.7 20.8 20.9 21.0 21.1 21.1 21.2 21.3 21.2 21.1 21.0 20.9 20.8 20.7 20.7 20.6 20.6 20.5 20.5 20.4 20.4 20.3 20.3 20.2 20.1 20.0 20.8 20.9 21.1 21.2 21.3 21.4 21.5 21.5 21.5 21.3 21.1 21.0 20.9 20.9 20.8 20.7 20.6 20.6 20.5 20.5 20.4 20.4 20.3 20.2 20.1 20.0 20.9 21.1 21.3 21.4 21.6 21.7 21.8 21.9 21.7 21.5 21.3 21.2 21.1 21.0 20.9 20.8 20.7 20.7 20.6 20.5 20.5 20.4 20.3 20.2 20.1 20.0 21.1 21.3 21.5 21.7 21.9 22.0 22.2 22.3 22.1 21.8 21.6 21.4 21.3 21.2 21.1 21.0 20.9 20.7 20.7 20.6 20.5 20.4 20.3 20.2 20.1 20.0 21.3 21.5 21.7 22.0 22.2 22.5 22.8 22.8 22.5 22.1 21.9 21.7 21.5 21.4 21.2 21.1 21.0 20.8 20.7 20.6 20.6 20.5 20.4 20.2 20.1 20.0 21.4 21.7 22.0 22.4 22.7 23.0 23.4 23.4 23.0 22.5 22.2 22.0 21.8 21.6 21.4 21.3 21.1 21.0 20.8 20.7 20.6 20.5 20.4 20.2 20.1 20.0 21.7 22.1 22.5 22.9 23.3 23.7 24.2 24.2 23.6 23.1 22.7 22.4 22.1 21.9 21.6 21.4 21.2 21.1 20.9 20.8 20.7 20.5 20.4 20.2 20.1 20.0 22.0 22.7 23.4 23.7 24.1 24.9 25.7 25.6 24.5 23.7 23.2 22.8 22.5 22.2 21.9 21.6 21.4 21.2 21.0 20.8 20.7 20.6 20.4 20.2 20.1 20.0 22.6 23.8 25.2 25.4 26.7 30.1 32.1 29.9 26.3 24.5 23.9 23.4 22.9 22.5 22.1 21.8 21.5 21.3 21.1 20.9 20.8 20.6 20.4 20.2 20.1 20.0 23.3 25.2 28.4 29.4 29.0 35.8 41.9 38.5 32.5 27.4 24.7 24.0 23.4 22.8 22.4 22.0 21.7 21.4 21.2 21.0 20.9 20.7 20.5 20.3 20.1 20.1 24.1 29.8 42.4 47.7 38.2 42.8 54.6 49.1 38.3 29.6 25.7 24.7 24.0 23.3 22.8 22.3 21.9 21.6 21.4 21.2 21.0 20.7 20.5 20.3 20.1 20.1 28.4 49.3 85.9 99.4 70.3 74.5 101.7 78.9 44.4 30.3 27.1 25.7 24.8 23.9 23.2 22.7 22.3 21.9 21.6 21.3 21.1 20.8 20.5 20.3 20.1 20.1 33.8 70.7 134.3 172.3 138.0 156.5 213.2 157.8 71.1 35.4 29.5 27.3 25.9 24.7 23.8 23.1 22.5 22.1 21.7 21.4 21.1 20.8 20.5 20.3 20.1 20.1 33.8 65.7 133.0 201.6 190.0 238.4 325.4 234.6 97.5 43.0 32.2 28.5 26.6 25.2 24.2 23.4 22.7 22.1 21.7 21.4 21.1 20.8 20.5 20.3 20.1 20.1 32.9 63.7 135.8 208.7 190.4 248.7 351.0 245.9 99.9 51.1 36.5 28.4 26.3 25.1 24.1 23.3 22.6 22.1 21.7 21.4 21.1 20.8 20.5 20.3 20.1 20.1 32.1 58.6 107.7 146.1 134.2 178.3 250.3 180.6 78.1 45.3 34.1 26.8 25.3 24.5 23.6 22.9 22.4 22.0 21.7 21.4 21.1 20.8 20.5 20.3 20.1 20.1 27.9 38.4 46.9 50.7 59.0 81.5 106.9 85.7 45.3 31.0 27.1 25.2 24.3 23.6 23.0 22.5 22.1 21.8 21.5 21.3 21.0 20.8 20.5 20.3 20.1 20.1 23.7 28.2 30.4 29.6 30.6 34.7 40.2 37.2 29.5 26.4 25.2 24.3 23.6 23.0 22.5 22.1 21.8 21.5 21.3 21.1 20.9 20.7 20.5 20.3 20.1 20.1 20.0 20.0 20.0 20.0 20.0 20.0 20.0 20.0 20.1 20.1 20.1 20.0 20.0 20.0 20.0 20.0 20.1 20.1 20.1 20.1 20.1 20.1 20.1 20.1 20.1 20.1 20.1 20.1 20.1 20.1 20.1 20.1 20.1 20.1 20.1 20.1 20.1 20.1 20.1 20.1 20.1 20.1 20.1 20.1 20.1 20.1 20.1 20.1 20.1 20.1 20.1 20.1 20.2 20.2 20.2 20.2 20.2 20.2 20.2 20.2 20.3 20.3 20.3 20.2 20.2 20.2 20.2 20.2 20.2 20.2 20.2 20.2 20.2 20.2 20.2 20.2 20.1 20.1 20.3 20.3 20.4 20.4 20.4 20.4 20.4 20.4 20.5 20.5 20.4 20.4 20.3 20.3 20.3 20.3 20.3 20.3 20.3 20.3 20.2 20.2 20.2 20.2 20.1 20.1 20.4 20.5 20.5 20.5 20.5 20.5 20.5 20.6 20.6 20.6 20.6 20.5 20.5 20.4 20.4 20.4 20.4 20.4 20.3 20.3 20.3 20.2 20.2 20.2 20.1 20.1 20.5 20.6 20.6 20.7 20.7 20.7 20.7 20.8 20.8 20.8 20.7 20.6 20.5 20.5 20.5 20.5 20.4 20.4 20.4 20.3 20.3 20.3 20.2 20.2 20.1 20.1 20.6 20.6 20.7 20.8 20.8 20.8 20.9 20.9 20.9 20.9 20.8 20.7 20.6 20.6 20.6 20.5 20.5 20.4 20.4 20.4 20.3 20.3 20.3 20.2 20.1 20.1 20.6 20.7 20.8 20.9 20.9 21.0 21.0 21.1 21.1 21.0 20.9 20.8 20.7 20.7 20.6 20.6 20.6 20.5 20.5 20.4 20.4 20.3 20.3 20.2 20.1 20.1 20.7 20.8 20.9 21.0 21.1 21.1 21.2 21.3 21.3 21.2 21.0 20.9 20.8 20.8 20.7 20.7 20.6 20.6 20.5 20.5 20.4 20.4 20.3 20.2 20.1 20.1 20.8 20.9 21.1 21.2 21.3 21.3 21.5 21.5 21.5 21.3 21.2 21.0 21.0 20.9 20.8 20.8 20.7 20.6 20.6 20.5 20.5 20.4 20.4 20.3 20.1 20.1 20.9 21.1 21.2 21.4 21.5 21.6 21.8 21.8 21.7 21.5 21.3 21.2 21.1 21.1 21.0 20.9 20.8 20.7 20.6 20.6 20.5 20.5 20.4 20.3 20.1 20.1 21.0 21.2 21.4 21.6 21.7 21.9 22.1 22.2 22.0 21.8 21.6 21.4 21.3 21.2 21.1 21.0 20.9 20.8 20.7 20.6 20.6 20.5 20.4 20.3 20.1 20.1 21.2 21.4 21.7 21.9 22.1 22.3 22.6 22.7 22.4 22.1 21.8 21.7 21.5 21.4 21.3 21.1 21.0 20.9 20.8 20.7 20.6 20.5 20.4 20.3 20.1 20.1 21.4 21.6 21.9 22.2 22.4 22.8 23.2 23.3 22.9 22.4 22.2 22.0 21.8 21.6 21.5 21.3 21.1 21.0 20.9 20.8 20.7 20.6 20.4 20.3 20.1 20.1 21.6 22.0 22.3 22.7 23.0 23.4 24.0 24.0 23.4 22.9 22.6 22.3 22.1 21.9 21.6 21.5 21.3 21.1 21.0 20.9 20.7 20.6 20.4 20.3 20.1 20.1 22.1 22.8 23.1 23.3 23.7 24.4 25.1 25.1 24.3 23.5 23.1 22.7 22.4 22.1 21.9 21.6 21.4 21.2 21.1 20.9 20.8 20.6 20.5 20.3 20.1 20.1 24.0 24.9 25.2 25.1 25.8 29.0 30.9 28.6 25.7 24.3 23.7 23.2 22.8 22.4 22.1 21.8 21.6 21.3 21.1 21.0 20.8 20.7 20.5 20.3 20.1 20.1 25.9 28.0 29.4 27.7 28.1 36.1 41.1 37.9 32.6 27.4 24.5 23.8 23.2 22.8 22.4 22.0 21.7 21.5 21.3 21.1 20.9 20.8 20.5 20.3 20.1 20.1 28.2 39.1 51.7 44.5 33.0 42.3 52.3 50.1 40.2 29.8 25.4 24.5 23.8 23.2 22.7 22.3 22.0 21.7 21.5 21.3 21.1 20.8 20.6 20.3 20.1 20.1 43.2 83.7 117.7 91.5 48.4 53.7 69.9 60.9 41.5 30.6 26.8 25.6 24.6 23.8 23.2 22.7 22.3 21.9 21.7 21.4 21.2 20.9 20.6 20.4 20.1 20.1 65.3 134.4 192.0 152.3 78.9 88.2 119.4 92.3 52.5 36.5 29.3 27.2 25.7 24.6 23.8 23.1 22.6 22.1 21.8 21.5 21.2 20.9 20.6 20.3 20.1 20.1 62.7 127.8 197.1 174.0 115.3 163.5 222.8 164.4 87.2 54.9 34.4 28.5 26.5 25.2 24.1 23.3 22.7 22.2 21.8 21.4 21.2 20.9 20.6 20.3 20.1 20.1 58.7 124.0 193.4 173.8 123.1 192.8 269.6 206.6 119.5 81.4 48.0 29.2 26.2 25.1 24.1 23.2 22.7 22.2 21.8 21.4 21.2 20.9 20.6 20.3 20.1 20.1 57.8 109.2 146.0 123.6 86.9 124.2 169.3 136.5 91.7 70.7 45.3 27.7 25.2 24.4 23.6 22.9 22.5 22.0 21.7 21.4 21.2 20.9 20.6 20.3 20.1 20.1 39.3 57.1 60.0 50.8 46.6 54.9 63.1 53.4 42.9 37.2 29.0 25.2 24.2 23.6 23.0 22.5 22.2 21.8 21.6 21.4 21.1 20.9 20.6 20.3 20.1 20.1 26.5 32.6 33.8 31.4 31.1 32.4 33.9 32.6 28.9 26.3 24.9 24.1 23.4 22.9 22.5 22.1 21.8 21.6 21.4 21.2 21.0 20.8 20.5 20.3 20.1 20.1 20.0 20.0 20.0 20.0 20.0 20.0 20.0 20.0 20.1 20.1 20.1 20.1 20.0 20.0 20.1 20.1 20.1 20.1 20.1 20.1 20.1 20.1 20.1 20.1 20.1 20.1 20.1 20.1 20.1 20.1 20.1 20.1 20.1 20.1 20.1 20.1 20.1 20.1 20.1 20.1 20.1 20.1 20.1 20.1 20.2 20.2 20.2 20.2 20.2 20.2 20.1 20.1 20.2 20.2 20.2 20.2 20.2 20.2 20.2 20.2 20.3 20.3 20.3 20.3 20.2 20.2 20.2 20.3 20.3 20.3 20.3 20.2 20.2 20.2 20.2 20.2 20.2 20.1 20.3 20.3 20.4 20.4 20.4 20.4 20.4 20.4 20.5 20.5 20.5 20.4 20.4 20.4 20.4 20.4 20.4 20.3 20.3 20.3 20.3 20.3 20.2 20.2 20.2 20.1 20.4 20.5 20.5 20.5 20.5 20.5 20.5 20.6 20.7 20.7 20.6 20.5 20.5 20.5 20.4 20.4 20.4 20.4 20.4 20.3 20.3 20.3 20.3 20.2 20.2 20.1 20.5 20.6 20.6 20.7 20.7 20.7 20.7 20.8 20.8 20.8 20.7 20.6 20.6 20.5 20.5 20.5 20.5 20.4 20.4 20.4 20.3 20.3 20.3 20.2 20.2 20.1 20.6 20.6 20.7 20.8 20.8 20.8 20.8 20.9 20.9 20.9 20.8 20.7 20.6 20.6 20.6 20.5 20.5 20.5 20.4 20.4 20.4 20.3 20.3 20.3 20.2 20.1 20.6 20.7 20.8 20.9 20.9 20.9 20.9 21.0 21.1 21.0 20.9 20.8 20.7 20.7 20.7 20.6 20.6 20.5 20.5 20.4 20.4 20.4 20.3 20.3 20.2 20.1 20.7 20.8 20.9 21.0 21.0 21.1 21.1 21.2 21.2 21.1 21.0 20.9 20.8 20.8 20.7 20.7 20.6 20.6 20.5 20.5 20.5 20.4 20.4 20.3 20.2 20.1 20.8 20.9 21.0 21.1 21.2 21.2 21.3 21.4 21.4 21.3 21.1 21.0 20.9 20.9 20.8 20.8 20.7 20.7 20.6 20.5 20.5 20.5 20.4 20.3 20.2 20.1 20.9 21.0 21.2 21.3 21.4 21.5 21.6 21.7 21.6 21.5 21.3 21.2 21.1 21.0 21.0 20.9 20.8 20.7 20.7 20.6 20.6 20.5 20.4 20.3 20.2 20.1 21.0 21.1 21.3 21.4 21.6 21.7 21.9 22.0 21.9 21.7 21.5 21.3 21.3 21.2 21.1 21.0 20.9 20.8 20.7 20.7 20.6 20.6 20.5 20.3 20.1 20.1 21.1 21.3 21.5 21.7 21.8 22.1 22.4 22.4 22.2 21.9 21.7 21.6 21.5 21.3 21.2 21.1 21.0 20.9 20.8 20.7 20.7 20.6 20.5 20.3 20.1 20.1 21.3 21.5 21.8 21.9 22.2 22.5 22.9 23.0 22.6 22.3 22.0 21.8 21.7 21.5 21.4 21.2 21.1 21.0 20.9 20.8 20.7 20.6 20.5 20.3 20.1 20.1 21.5 21.8 22.1 22.3 22.6 23.0 23.5 23.6 23.1 22.7 22.4 22.1 21.9 21.8 21.6 21.4 21.2 21.1 21.0 20.9 20.8 20.6 20.5 20.3 20.1 20.1 22.4 22.9 22.8 22.8 23.1 23.7 24.5 24.5 23.9 23.2 22.8 22.5 22.2 22.0 21.8 21.5 21.4 21.2 21.0 20.9 20.8 20.7 20.5 20.3 20.1 20.1 25.0 25.7 24.9 24.4 24.8 27.4 29.1 27.2 25.0 23.9 23.4 22.9 22.6 22.3 22.0 21.7 21.5 21.3 21.1 21.0 20.9 20.7 20.5 20.3 20.1 20.1 28.1 30.4 28.2 26.0 29.2 34.6 35.6 32.8 29.5 26.0 24.0 23.5 23.0 22.6 22.2 21.9 21.7 21.4 21.3 21.1 21.0 20.8 20.6 20.4 20.2 20.1 34.5 48.8 46.8 32.5 33.6 41.1 43.8 45.6 39.3 29.3 25.0 24.1 23.5 23.0 22.5 22.2 21.9 21.6 21.4 21.3 21.1 20.9 20.7 20.4 20.2 20.1 56.1 105.9 102.0 51.9 40.7 52.7 60.9 61.1 45.0 31.2 26.5 25.1 24.2 23.6 23.0 22.5 22.2 21.9 21.6 21.4 21.2 21.0 20.7 20.4 20.2 20.1 101.6 175.3 161.5 82.2 71.1 96.9 109.4 94.5 57.6 36.2 29.0 26.8 25.2 24.3 23.6 22.9 22.4 22.0 21.7 21.4 21.2 20.9 20.7 20.4 20.2 20.1 109.8 179.5 165.5 104.9 131.1 178.3 185.3 156.0 102.0 60.8 35.3 28.1 26.1 24.9 24.0 23.1 22.6 22.1 21.7 21.4 21.2 20.9 20.6 20.3 20.1 20.1 106.6 177.0 162.3 100.5 130.2 177.3 177.4 165.5 136.8 98.0 52.2 28.8 25.9 24.8 23.9 23.0 22.5 22.1 21.7 21.4 21.2 20.9 20.6 20.4 20.1 20.1 99.0 149.1 129.4 75.7 72.2 88.9 87.8 92.6 97.4 83.6 49.3 27.4 24.9 24.1 23.5 22.8 22.3 22.0 21.7 21.4 21.2 20.9 20.7 20.4 20.2 20.1 60.0 72.5 62.2 49.5 43.7 41.1 38.1 37.4 41.8 39.3 29.5 24.8 23.9 23.3 22.9 22.4 22.1 21.8 21.6 21.4 21.2 20.9 20.7 20.4 20.2 20.1 39.1 42.1 37.6 34.2 33.2 31.4 29.5 28.7 27.5 25.8 24.4 23.7 23.2 22.7 22.3 22.0 21.7 21.5 21.3 21.2 21.0 20.8 20.6 20.4 20.2 20.1 20.0 20.0 20.0 20.0 20.0 20.0 20.0 20.0 20.1 20.1 20.1 20.1 20.1 20.1 20.1 20.1 20.1 20.1 20.1 20.1 20.1 20.1 20.1 20.2 20.2 20.1 20.1 20.1 20.1 20.1 20.1 20.1 20.1 20.1 20.1 20.1 20.1 20.1 20.1 20.1 20.1 20.1 20.2 20.2 20.2 20.2 20.2 20.2 20.2 20.2 20.2 20.2 20.2 20.2 20.2 20.2 20.2 20.2 20.2 20.2 20.3 20.3 20.3 20.3 20.3 20.3 20.3 20.3 20.3 20.3 20.3 20.3 20.3 20.2 20.2 20.2 20.2 20.2 20.3 20.3 20.4 20.4 20.4 20.4 20.4 20.4 20.5 20.5 20.5 20.4 20.4 20.4 20.4 20.4 20.4 20.4 20.3 20.3 20.3 20.3 20.3 20.2 20.2 20.2 20.4 20.5 20.5 20.5 20.5 20.5 20.5 20.6 20.6 20.7 20.6 20.5 20.5 20.4 20.4 20.4 20.4 20.4 20.4 20.3 20.3 20.3 20.3 20.3 20.2 20.1 20.5 20.5 20.6 20.6 20.6 20.6 20.6 20.7 20.8 20.8 20.7 20.6 20.5 20.5 20.5 20.5 20.5 20.4 20.4 20.4 20.3 20.3 20.3 20.3 20.2 20.1 20.5 20.6 20.7 20.7 20.7 20.7 20.7 20.8 20.8 20.8 20.7 20.7 20.6 20.6 20.5 20.5 20.5 20.5 20.4 20.4 20.4 20.4 20.3 20.3 20.2 20.1 20.6 20.7 20.7 20.8 20.8 20.8 20.9 20.9 21.0 20.9 20.8 20.7 20.7 20.6 20.6 20.6 20.6 20.5 20.5 20.4 20.4 20.4 20.4 20.3 20.2 20.1 20.6 20.7 20.8 20.9 20.9 21.0 21.0 21.1 21.1 21.0 20.9 20.8 20.8 20.7 20.7 20.7 20.6 20.6 20.5 20.5 20.5 20.4 20.4 20.3 20.2 20.1 20.7 20.8 20.9 21.0 21.0 21.1 21.2 21.3 21.3 21.2 21.0 20.9 20.9 20.8 20.8 20.7 20.7 20.6 20.6 20.5 20.5 20.5 20.4 20.3 20.2 20.1 20.8 20.9 21.0 21.1 21.2 21.3 21.4 21.5 21.5 21.3 21.2 21.1 21.0 20.9 20.9 20.8 20.8 20.7 20.6 20.6 20.5 20.5 20.4 20.3 20.2 20.1 20.9 21.0 21.1 21.3 21.4 21.5 21.7 21.8 21.7 21.5 21.4 21.2 21.1 21.1 21.0 20.9 20.8 20.8 20.7 20.6 20.6 20.5 20.5 20.3 20.2 20.1 21.0 21.2 21.3 21.5 21.6 21.8 22.1 22.2 22.0 21.8 21.6 21.4 21.3 21.2 21.1 21.0 20.9 20.9 20.8 20.7 20.6 20.6 20.5 20.3 20.2 20.1 21.2 21.4 21.5 21.7 21.9 22.2 22.5 22.6 22.4 22.0 21.8 21.7 21.5 21.4 21.3 21.1 21.0 20.9 20.8 20.8 20.7 20.6 20.5 20.3 20.1 20.1 21.4 21.6 21.8 21.9 22.2 22.6 23.0 23.1 22.8 22.4 22.1 21.9 21.8 21.6 21.4 21.3 21.1 21.0 20.9 20.8 20.7 20.6 20.5 20.3 20.1 20.1 22.2 22.6 22.4 22.3 22.6 23.2 23.9 23.9 23.4 22.8 22.5 22.2 22.0 21.8 21.6 21.4 21.2 21.1 21.0 20.9 20.8 20.7 20.5 20.3 20.1 20.1 24.7 25.3 24.0 23.5 24.3 26.4 27.1 25.6 24.2 23.4 23.0 22.6 22.3 22.0 21.8 21.5 21.4 21.2 21.0 20.9 20.8 20.7 20.5 20.3 20.2 20.1 27.9 29.7 26.8 26.7 28.4 30.3 30.5 27.9 26.2 24.7 23.5 23.0 22.7 22.3 22.0 21.7 21.5 21.3 21.2 21.0 20.9 20.8 20.6 20.4 20.2 20.1 33.7 42.1 36.0 32.3 34.1 33.0 34.9 38.0 36.1 28.9 24.6 23.6 23.1 22.7 22.3 22.0 21.7 21.5 21.3 21.2 21.1 20.9 20.7 20.4 20.2 20.1 49.9 78.2 62.0 41.7 43.5 42.1 50.8 56.4 45.5 31.4 26.2 24.6 23.7 23.2 22.8 22.3 22.0 21.7 21.5 21.3 21.1 20.9 20.7 20.4 20.2 20.1 105.9 148.2 105.3 69.0 80.0 88.9 110.4 99.1 58.6 33.3 28.2 26.2 24.6 23.9 23.2 22.6 22.2 21.8 21.6 21.3 21.1 20.9 20.7 20.4 20.2 20.1 140.1 179.5 129.2 110.9 138.6 144.1 160.1 147.8 96.1 48.7 32.4 27.3 25.3 24.4 23.6 22.8 22.3 21.9 21.6 21.3 21.1 20.9 20.6 20.4 20.1 20.1 148.5 182.0 130.5 111.4 130.0 115.4 116.2 134.3 121.7 74.5 41.5 27.2 25.2 24.3 23.6 22.8 22.3 21.9 21.5 21.3 21.1 20.9 20.6 20.4 20.2 20.1 134.4 154.3 111.1 81.1 76.2 58.3 54.6 73.9 83.6 63.4 38.8 26.0 24.4 23.7 23.2 22.5 22.1 21.8 21.5 21.3 21.1 20.9 20.7 20.4 20.2 20.1 90.0 90.8 72.9 60.0 53.1 42.9 35.6 35.9 36.7 32.4 27.1 24.3 23.5 23.0 22.6 22.2 21.9 21.7 21.5 21.3 21.1 20.9 20.7 20.4 20.2 20.1 58.0 58.2 46.6 41.5 38.8 34.1 29.3 27.8 26.6 24.9 24.0 23.3 22.8 22.5 22.1 21.8 21.6 21.4 21.2 21.1 21.0 20.8 20.6 20.4 20.2 20.1 20.0 20.0 20.0 20.0 20.0 20.0 20.0 20.0 20.1 20.1 20.1 20.1 20.0 20.1 20.1 20.1 20.1 20.1 20.1 20.1 20.2 20.2 20.2 20.2 20.2 20.2 20.1 20.1 20.1 20.1 20.1 20.1 20.1 20.1 20.1 20.1 20.1 20.1 20.1 20.1 20.1 20.1 20.2 20.2 20.2 20.2 20.2 20.2 20.2 20.2 20.2 20.2 20.2 20.2 20.2 20.2 20.2 20.2 20.2 20.2 20.3 20.3 20.3 20.3 20.3 20.2 20.3 20.3 20.3 20.3 20.3 20.3 20.3 20.2 20.2 20.2 20.2 20.2 20.3 20.3 20.3 20.4 20.4 20.3 20.3 20.4 20.4 20.5 20.5 20.4 20.4 20.4 20.4 20.4 20.3 20.3 20.3 20.3 20.3 20.3 20.2 20.2 20.2 20.2 20.4 20.4 20.5 20.5 20.5 20.5 20.5 20.5 20.6 20.6 20.6 20.5 20.4 20.4 20.4 20.4 20.4 20.4 20.3 20.3 20.3 20.3 20.3 20.2 20.2 20.2 20.4 20.5 20.5 20.6 20.6 20.6 20.6 20.6 20.7 20.7 20.6 20.6 20.5 20.5 20.4 20.4 20.4 20.4 20.4 20.3 20.3 20.3 20.3 20.3 20.2 20.2 20.5 20.5 20.6 20.6 20.7 20.7 20.7 20.7 20.8 20.7 20.7 20.6 20.5 20.5 20.5 20.5 20.5 20.4 20.4 20.4 20.4 20.3 20.3 20.3 20.2 20.1 20.5 20.6 20.6 20.7 20.7 20.7 20.8 20.8 20.8 20.8 20.7 20.7 20.6 20.6 20.6 20.5 20.5 20.5 20.4 20.4 20.4 20.4 20.3 20.3 20.2 20.1 20.6 20.7 20.7 20.8 20.8 20.8 20.9 20.9 21.0 20.9 20.8 20.7 20.7 20.7 20.6 20.6 20.6 20.5 20.5 20.4 20.4 20.4 20.4 20.3 20.2 20.1 20.7 20.7 20.8 20.9 20.9 21.0 21.0 21.1 21.1 21.0 20.9 20.8 20.8 20.7 20.7 20.7 20.6 20.6 20.5 20.5 20.5 20.4 20.4 20.3 20.2 20.1 20.7 20.8 20.9 21.0 21.1 21.1 21.2 21.3 21.3 21.2 21.1 21.0 20.9 20.9 20.8 20.7 20.7 20.6 20.6 20.5 20.5 20.5 20.4 20.3 20.2 20.1 20.8 20.9 21.0 21.1 21.2 21.4 21.5 21.6 21.5 21.4 21.2 21.1 21.0 21.0 20.9 20.8 20.8 20.7 20.6 20.6 20.5 20.5 20.4 20.3 20.2 20.1 20.9 21.1 21.2 21.3 21.4 21.6 21.8 21.9 21.8 21.6 21.4 21.3 21.2 21.1 21.0 20.9 20.8 20.8 20.7 20.6 20.6 20.5 20.5 20.3 20.2 20.1 21.1 21.2 21.4 21.5 21.7 22.0 22.2 22.3 22.1 21.8 21.6 21.5 21.4 21.3 21.1 21.0 20.9 20.8 20.8 20.7 20.6 20.6 20.5 20.3 20.1 20.1 21.2 21.5 21.6 2