<?xml version="1.0"?>
<VTKFile type="RectilinearGrid" version="1.0" byte_order="LittleEndian" header_type="UInt64">
<RectilinearGrid WholeExtent="25 50 0 25 0 15">
<Piece Extent="25 50 0 25 0 15">
<Coordinates>
<DataArray type="Float64" Name="Array X-Axis" format="ascii" RangeMin="15.0" RangeMax="30.0">
15.0 15.6 16.2 16.8 17.4 18.0 18.6 19.2 19.8 20.4 21.0 21.6 22.2 22.8 23.4 24.0 24.6 25.2 25.8 26.4 27.0 27.6 28.2 28.8 29.4 30.0 
</DataArray>
<DataArray type="Float64" Name="Array Y-Axis" format="ascii" RangeMin="0.0" RangeMax="15.0">
0.0 0.6 1.2 1.8 2.4 3.0 3.6 4.2 4.8 5.4 6.0 6.6 7.2 7.8 8.4 9.0 9.6 10.2 10.8 11.4 12.0 12.6 13.2 13.8 14.4 15.0 
</DataArray>
<DataArray type="Float64" Name="Array Z-Axis" format="ascii" RangeMin="0.0" RangeMax="9.0">
0.0 0.6 1.2 1.8 2.4 3.0 3.6 4.2 4.8 5.4 6.0 6.6 7.2 7.8 8.4 9.0 
</DataArray>
</Coordinates>
<PointData>
<DataArray Name="TEMPERATURE" NumberOfComponents="1" type="Float64" format="ascii">
20.1 20.1 20.1 20.1 20.1 20.1 20.1 20.1 20.1 20.1 20.1 20.1 20.1 20.1 20.1 20.1 20.1 20.1 20.1 20.1 20.1 20.1 20.1 20.1 20.1 20.1 20.1 20.1 20.1 20.2 20.2 20.1 20.1 20.1 20.2 20.2 20.2 20.2 20.1 20.1 20.1 20.1 20.1 20.1 20.1 20.1 20.1 20.1 20.1 20.1 20.1 20.1 20.2 20.2 20.3 20.3 20.3 20.3 20.3 20.3 20.3 20.3 20.3 20.3 20.2 20.2 20.2 20.2 20.2 20.2 20.2 20.2 20.1 20.1 20.1 20.1 20.1 20.1 20.3 20.3 20.4 20.4 20.4 20.4 20.4 20.4 20.4 20.4 20.4 20.3 20.3 20.3 20.3 20.3 20.2 20.2 20.2 20.2 20.2 20.2 20.1 20.1 20.1 20.1 20.3 20.4 20.4 20.5 20.5 20.5 20.5 20.5 20.5 20.5 20.5 20.4 20.4 20.3 20.3 20.3 20.3 20.3 20.2 20.2 20.2 20.2 20.2 20.1 20.1 20.1 20.4 20.4 20.5 20.5 20.5 20.6 20.6 20.6 20.6 20.6 20.5 20.4 20.4 20.4 20.4 20.3 20.3 20.3 20.3 20.2 20.2 20.2 20.2 20.2 20.1 20.1 20.4 20.5 20.5 20.6 20.6 20.7 20.7 20.7 20.7 20.7 20.6 20.5 20.5 20.4 20.4 20.4 20.4 20.3 20.3 20.3 20.2 20.2 20.2 20.2 20.1 20.1 20.5 20.6 20.6 20.7 20.8 20.8 20.8 20.8 20.8 20.7 20.7 20.6 20.5 20.5 20.5 20.4 20.4 20.4 20.3 20.3 20.3 20.2 20.2 20.2 20.1 20.1 20.6 20.6 20.7 20.8 20.9 20.9 20.9 21.0 20.9 20.9 20.8 20.7 20.6 20.6 20.5 20.5 20.5 20.4 20.4 20.3 20.3 20.3 20.2 20.2 20.1 20.1 20.6 20.7 20.8 20.9 21.0 21.1 21.1 21.1 21.1 21.0 20.9 20.8 20.7 20.7 20.6 20.6 20.5 20.5 20.4 20.4 20.3 20.3 20.3 20.2 20.2 20.1 20.7 20.9 21.0 21.1 21.2 21.3 21.4 21.3 21.3 21.1 21.0 20.9 20.8 20.8 20.7 20.6 20.6 20.5 20.5 20.4 20.4 20.3 20.3 20.2 20.2 20.1 20.8 21.0 21.1 21.3 21.4 21.6 21.6 21.6 21.5 21.3 21.2 21.0 21.0 20.9 20.8 20.7 20.6 20.6 20.5 20.5 20.4 20.4 20.3 20.3 20.2 20.1 21.0 21.1 21.3 21.5 21.7 21.9 22.0 21.9 21.7 21.5 21.3 21.2 21.1 21.0 20.9 20.8 20.7 20.7 20.6 20.5 20.5 20.4 20.4 20.3 20.2 20.1 21.1 21.3 21.5 21.7 22.0 22.2 22.4 22.2 22.0 21.7 21.5 21.4 21.3 21.2 21.0 20.9 20.8 20.7 20.6 20.6 20.5 20.4 20.4 20.3 20.2 20.1 21.3 21.5 21.8 22.0 22.3 22.6 22.9 22.7 22.3 22.0 21.8 21.6 21.5 21.3 21.2 21.0 20.9 20.8 20.7 20.6 20.5 20.5 20.4 20.3 20.2 20.1 21.5 21.8 22.1 22.4 22.8 23.3 23.4 23.1 22.7 22.4 22.1 21.9 21.7 21.5 21.3 21.1 21.0 20.9 20.8 20.7 20.6 20.5 20.4 20.3 20.2 20.1 21.7 22.0 22.4 22.8 23.4 24.1 24.4 23.9 23.2 22.8 22.5 22.2 21.9 21.7 21.4 21.3 21.1 20.9 20.8 20.7 20.6 20.5 20.5 20.3 20.2 20.1 22.0 22.4 22.8 23.4 24.1 24.9 25.5 24.9 23.8 23.3 22.9 22.5 22.1 21.9 21.6 21.4 21.2 21.0 20.9 20.8 20.7 20.6 20.5 20.4 20.2 20.1 22.3 22.8 23.3 24.5 25.9 26.6 26.7 25.7 24.5 23.9 23.4 22.9 22.5 22.1 21.8 21.6 21.4 21.2 21.0 20.9 20.8 20.7 20.6 20.4 20.2 20.1 22.8 23.4 24.3 28.9 32.6 32.1 31.0 29.5 27.0 24.8 24.0 23.4 22.9 22.4 22.1 21.8 21.5 21.3 21.2 21.0 20.9 20.8 20.6 20.4 20.2 20.1 23.6 24.6 25.9 31.2 36.3 36.4 34.7 38.0 34.5 27.2 25.0 24.2 23.4 22.8 22.4 22.0 21.7 21.5 21.3 21.1 20.9 20.8 20.6 20.4 20.2 20.1 24.3 25.7 27.1 31.1 34.4 20.0 20.0 45.3 38.2 28.8 26.0 24.9 23.9 23.2 22.7 22.2 21.9 21.6 21.3 21.1 20.9 20.7 20.6 20.4 20.2 20.1 24.1 25.2 26.6 30.8 33.9 20.0 20.0 37.5 33.0 27.6 26.0 24.7 23.9 23.2 22.7 22.2 21.9 21.6 21.3 21.1 20.9 20.8 20.6 20.4 20.2 20.1 23.2 23.8 25.4 28.5 31.1 31.8 30.3 30.5 28.4 25.6 24.8 23.8 23.3 22.8 22.3 22.0 21.7 21.5 21.3 21.1 20.9 20.8 20.6 20.4 20.2 20.1 22.5 23.0 24.2 25.9 28.2 29.5 28.7 27.6 25.7 24.1 23.6 23.0 22.6 22.2 21.9 21.7 21.5 21.3 21.1 21.0 20.9 20.8 20.6 20.4 20.2 20.1 21.6 22.5 23.1 23.8 25.0 26.2 26.2 25.2 24.1 23.5 23.0 22.5 22.2 21.9 21.6 21.4 21.2 21.1 20.9 20.8 20.7 20.7 20.5 20.4 20.2 20.1 20.1 20.1 20.1 20.1 20.1 20.1 20.1 20.1 20.1 20.1 20.1 20.1 20.1 20.1 20.1 20.1 20.1 20.1 20.1 20.1 20.1 20.1 20.1 20.1 20.1 20.1 20.1 20.1 20.1 20.1 20.1 20.1 20.1 20.1 20.2 20.2 20.2 20.1 20.1 20.1 20.1 20.1 20.1 20.1 20.1 20.1 20.1 20.1 20.1 20.1 20.1 20.1 20.2 20.2 20.2 20.3 20.3 20.3 20.3 20.3 20.3 20.3 20.3 20.3 20.2 20.2 20.2 20.2 20.2 20.2 20.2 20.1 20.1 20.1 20.1 20.1 20.1 20.1 20.3 20.3 20.3 20.4 20.4 20.4 20.4 20.4 20.4 20.4 20.4 20.3 20.3 20.3 20.2 20.2 20.2 20.2 20.2 20.2 20.1 20.1 20.1 20.1 20.1 20.1 20.3 20.3 20.4 20.4 20.4 20.4 20.4 20.5 20.5 20.5 20.4 20.4 20.3 20.3 20.3 20.3 20.2 20.2 20.2 20.2 20.2 20.2 20.1 20.1 20.1 20.1 20.3 20.4 20.4 20.5 20.5 20.5 20.5 20.6 20.6 20.5 20.5 20.4 20.4 20.3 20.3 20.3 20.3 20.3 20.2 20.2 20.2 20.2 20.2 20.1 20.1 20.1 20.4 20.5 20.5 20.6 20.6 20.6 20.6 20.7 20.7 20.6 20.6 20.5 20.4 20.4 20.4 20.4 20.3 20.3 20.3 20.2 20.2 20.2 20.2 20.2 20.1 20.1 20.5 20.5 20.6 20.7 20.7 20.8 20.8 20.8 20.8 20.7 20.6 20.6 20.5 20.5 20.4 20.4 20.4 20.3 20.3 20.3 20.2 20.2 20.2 20.2 20.1 20.1 20.5 20.6 20.7 20.8 20.9 20.9 21.0 21.0 20.9 20.8 20.7 20.7 20.6 20.6 20.5 20.5 20.4 20.4 20.3 20.3 20.3 20.2 20.2 20.2 20.1 20.1 20.6 20.7 20.8 20.9 21.0 21.1 21.2 21.2 21.1 21.0 20.9 20.8 20.7 20.6 20.6 20.5 20.5 20.4 20.4 20.3 20.3 20.3 20.2 20.2 20.1 20.1 20.7 20.8 21.0 21.1 21.2 21.4 21.4 21.4 21.3 21.1 21.0 20.9 20.8 20.7 20.7 20.6 20.5 20.5 20.4 20.4 20.3 20.3 20.3 20.2 20.1 20.1 20.8 21.0 21.2 21.3 21.5 21.6 21.7 21.7 21.5 21.3 21.2 21.1 21.0 20.9 20.8 20.7 20.6 20.6 20.5 20.4 20.4 20.3 20.3 20.2 20.1 20.1 21.0 21.2 21.4 21.6 21.8 22.0 22.1 22.0 21.8 21.6 21.4 21.2 21.1 21.0 20.9 20.8 20.7 20.6 20.5 20.5 20.4 20.4 20.3 20.3 20.2 20.1 21.1 21.4 21.6 21.9 22.1 22.4 22.6 22.4 22.1 21.8 21.6 21.4 21.3 21.2 21.0 20.9 20.8 20.7 20.6 20.5 20.5 20.4 20.4 20.3 20.2 20.1 21.3 21.6 21.9 22.2 22.6 22.9 23.1 22.9 22.5 22.2 21.9 21.7 21.5 21.3 21.2 21.0 20.9 20.8 20.7 20.6 20.5 20.4 20.4 20.3 20.2 20.1 21.6 21.9 22.3 22.7 23.1 23.7 23.8 23.5 23.0 22.6 22.3 22.0 21.8 21.5 21.3 21.2 21.0 20.9 20.7 20.6 20.5 20.5 20.4 20.3 20.2 20.1 21.8 22.2 22.7 23.3 24.0 24.7 25.0 24.5 23.6 23.1 22.7 22.3 22.0 21.7 21.5 21.3 21.1 20.9 20.8 20.7 20.6 20.5 20.4 20.3 20.2 20.1 22.1 22.6 23.3 25.0 26.3 27.2 27.3 25.8 24.4 23.7 23.1 22.7 22.3 22.0 21.7 21.4 21.2 21.0 20.9 20.8 20.7 20.6 20.5 20.4 20.2 20.1 22.5 23.0 24.1 27.8 30.4 30.5 30.1 27.7 25.5 24.4 23.7 23.1 22.7 22.3 21.9 21.6 21.4 21.2 21.0 20.9 20.8 20.7 20.6 20.4 20.2 20.1 23.0 23.7 25.1 31.3 37.0 38.4 39.6 39.4 33.8 26.8 24.5 23.7 23.1 22.6 22.2 21.9 21.6 21.4 21.2 21.0 20.9 20.7 20.6 20.4 20.2 20.1 23.8 24.8 26.9 34.1 60.2 115.6 147.4 104.5 59.3 38.0 26.0 24.6 23.8 23.1 22.6 22.2 21.8 21.5 21.3 21.1 20.9 20.8 20.6 20.4 20.2 20.1 24.7 26.1 28.4 38.4 89.4 298.1 387.6 170.7 67.7 42.2 27.2 25.4 24.3 23.6 22.9 22.4 22.0 21.6 21.3 21.1 20.9 20.7 20.6 20.4 20.2 20.1 24.6 25.8 27.7 38.5 96.4 287.5 316.2 121.1 47.4 33.0 26.6 25.2 24.3 23.5 22.9 22.4 22.0 21.6 21.3 21.1 20.9 20.7 20.6 20.4 20.2 20.1 23.5 24.2 26.9 34.4 64.5 104.0 90.9 52.0 32.8 27.0 25.3 24.2 23.6 23.0 22.5 22.1 21.8 21.5 21.3 21.1 20.9 20.8 20.6 20.4 20.2 20.1 22.7 23.4 25.6 29.3 32.6 33.3 31.2 29.4 27.1 24.8 24.1 23.4 22.8 22.4 22.1 21.8 21.5 21.3 21.1 21.0 20.9 20.7 20.6 20.4 20.2 20.1 21.8 22.8 23.6 24.6 26.1 27.3 27.0 26.0 24.8 24.0 23.4 22.8 22.4 22.0 21.7 21.5 21.3 21.1 20.9 20.8 20.7 20.6 20.5 20.4 20.2 20.1 20.1 20.1 20.1 20.1 20.1 20.1 20.1 20.1 20.1 20.1 20.1 20.1 20.1 20.1 20.1 20.1 20.1 20.1 20.1 20.1 20.1 20.1 20.1 20.1 20.0 20.0 20.1 20.1 20.1 20.1 20.1 20.1 20.1 20.1 20.1 20.2 20.1 20.1 20.1 20.1 20.1 20.1 20.1 20.1 20.1 20.1 20.1 20.1 20.1 20.1 20.1 20.0 20.2 20.2 20.2 20.2 20.3 20.2 20.2 20.3 20.3 20.3 20.3 20.2 20.2 20.2 20.2 20.2 20.1 20.1 20.1 20.1 20.1 20.1 20.1 20.1 20.1 20.1 20.2 20.3 20.3 20.3 20.3 20.3 20.3 20.4 20.4 20.4 20.3 20.3 20.2 20.2 20.2 20.2 20.2 20.2 20.1 20.1 20.1 20.1 20.1 20.1 20.1 20.1 20.3 20.3 20.3 20.4 20.4 20.4 20.4 20.4 20.4 20.4 20.4 20.3 20.3 20.3 20.2 20.2 20.2 20.2 20.2 20.1 20.1 20.1 20.1 20.1 20.1 20.1 20.3 20.4 20.4 20.4 20.5 20.5 20.5 20.5 20.5 20.5 20.4 20.4 20.3 20.3 20.3 20.3 20.2 20.2 20.2 20.2 20.2 20.1 20.1 20.1 20.1 20.1 20.4 20.4 20.5 20.5 20.6 20.6 20.6 20.6 20.6 20.6 20.5 20.4 20.4 20.4 20.3 20.3 20.3 20.2 20.2 20.2 20.2 20.2 20.1 20.1 20.1 20.1 20.4 20.5 20.6 20.6 20.7 20.8 20.8 20.8 20.8 20.7 20.6 20.5 20.5 20.4 20.4 20.4 20.3 20.3 20.3 20.2 20.2 20.2 20.2 20.1 20.1 20.1 20.5 20.6 20.7 20.8 20.9 20.9 21.0 21.0 20.9 20.8 20.7 20.6 20.6 20.5 20.5 20.4 20.4 20.3 20.3 20.3 20.2 20.2 20.2 20.2 20.1 20.1 20.6 20.7 20.8 20.9 21.0 21.1 21.2 21.2 21.1 21.0 20.8 20.7 20.7 20.6 20.5 20.5 20.4 20.4 20.3 20.3 20.3 20.2 20.2 20.2 20.1 20.1 20.7 20.8 21.0 21.1 21.3 21.4 21.5 21.5 21.3 21.2 21.0 20.9 20.8 20.7 20.6 20.6 20.5 20.4 20.4 20.3 20.3 20.3 20.2 20.2 20.1 20.1 20.8 21.0 21.2 21.4 21.6 21.8 21.9 21.8 21.6 21.4 21.2 21.1 20.9 20.8 20.7 20.7 20.6 20.5 20.4 20.4 20.3 20.3 20.3 20.2 20.1 20.1 21.0 21.2 21.4 21.7 21.9 22.2 22.3 22.2 21.9 21.7 21.4 21.3 21.1 21.0 20.9 20.8 20.7 20.6 20.5 20.4 20.4 20.3 20.3 20.2 20.1 20.1 21.2 21.4 21.7 22.0 22.4 22.8 22.9 22.7 22.3 22.0 21.7 21.5 21.3 21.2 21.0 20.9 20.8 20.7 20.6 20.5 20.4 20.4 20.3 20.2 20.1 20.1 21.4 21.7 22.1 22.5 23.0 23.4 23.7 23.4 22.8 22.4 22.1 21.8 21.6 21.4 21.2 21.0 20.9 20.7 20.6 20.5 20.5 20.4 20.3 20.2 20.1 20.1 21.7 22.1 22.6 23.1 23.7 24.3 24.6 24.2 23.5 22.9 22.5 22.2 21.9 21.6 21.4 21.2 21.0 20.8 20.7 20.6 20.5 20.4 20.4 20.3 20.1 20.1 22.0 22.6 23.5 24.6 26.5 27.5 26.6 25.5 24.4 23.5 23.0 22.6 22.2 21.9 21.6 21.3 21.1 20.9 20.8 20.7 20.6 20.5 20.4 20.3 20.1 20.1 22.3 23.1 25.1 31.1 38.1 39.6 35.2 30.2 26.9 24.5 23.6 23.1 22.6 22.2 21.8 21.5 21.3 21.1 20.9 20.7 20.6 20.5 20.4 20.3 20.2 20.1 22.9 23.9 27.7 41.0 53.0 54.7 52.5 45.5 33.7 25.7 24.4 23.6 23.0 22.5 22.1 21.7 21.5 21.2 21.0 20.9 20.7 20.6 20.5 20.4 20.2 20.1 23.7 25.2 29.8 43.7 62.8 77.0 87.1 78.0 48.2 29.0 25.4 24.4 23.6 23.0 22.5 22.0 21.7 21.4 21.2 21.0 20.8 20.7 20.6 20.4 20.2 20.1 24.4 26.2 31.0 50.2 117.7 198.2 241.0 206.8 113.0 48.3 27.6 25.6 24.4 23.6 22.9 22.4 21.9 21.6 21.3 21.1 20.9 20.7 20.6 20.4 20.2 20.1 25.2 27.1 32.5 67.2 185.7 353.4 419.0 323.4 172.7 67.7 29.6 26.6 25.1 24.2 23.3 22.7 22.1 21.7 21.4 21.1 20.9 20.7 20.5 20.4 20.2 20.1 25.2 27.6 32.2 63.5 180.2 339.8 371.7 253.1 125.0 53.1 28.6 26.3 25.1 24.1 23.3 22.7 22.1 21.7 21.4 21.1 20.9 20.7 20.6 20.4 20.2 20.1 24.1 26.3 31.1 44.9 102.6 166.0 164.6 109.3 55.0 32.7 26.4 25.2 24.2 23.5 22.9 22.3 21.9 21.6 21.3 21.1 20.9 20.7 20.6 20.4 20.2 20.1 23.2 24.4 28.0 32.9 38.8 44.1 42.1 37.0 32.2 27.3 24.9 24.0 23.3 22.8 22.3 21.9 21.6 21.4 21.1 21.0 20.8 20.7 20.6 20.4 20.2 20.1 22.1 23.3 24.5 26.0 28.2 29.6 29.3 28.0 26.2 24.8 24.0 23.3 22.7 22.3 21.9 21.6 21.3 21.1 20.9 20.8 20.7 20.6 20.5 20.3 20.2 20.1 20.1 20.1 20.1 20.1 20.1 20.1 20.1 20.1 20.1 20.1 20.1 20.1 20.1 20.1 20.1 20.1 20.1 20.1 20.1 20.1 20.1 20.1 20.0 20.0 20.0 20.0 20.1 20.1 20.1 20.1 20.1 20.1 20.1 20.1 20.2 20.2 20.1 20.1 20.1 20.1 20.1 20.1 20.1 20.1 20.1 20.1 20.1 20.1 20.1 20.1 20.0 20.0 20.2 20.2 20.2 20.2 20.3 20.2 20.3 20.3 20.3 20.3 20.3 20.2 20.2 20.2 20.2 20.2 20.1 20.1 20.1 20.1 20.1 20.1 20.1 20.1 20.1 20.0 20.2 20.3 20.3 20.3 20.3 20.3 20.3 20.4 20.4 20.4 20.3 20.3 20.2 20.2 20.2 20.2 20.2 20.2 20.1 20.1 20.1 20.1 20.1 20.1 20.1 20.1 20.3 20.3 20.4 20.4 20.4 20.4 20.4 20.4 20.5 20.4 20.4 20.3 20.3 20.3 20.2 20.2 20.2 20.2 20.2 20.1 20.1 20.1 20.1 20.1 20.1 20.1 20.3 20.4 20.4 20.5 20.5 20.5 20.5 20.5 20.5 20.5 20.4 20.4 20.3 20.3 20.3 20.3 20.2 20.2 20.2 20.2 20.1 20.1 20.1 20.1 20.1 20.1 20.4 20.4 20.5 20.6 20.6 20.6 20.6 20.7 20.7 20.6 20.5 20.4 20.4 20.4 20.3 20.3 20.3 20.2 20.2 20.2 20.2 20.1 20.1 20.1 20.1 20.1 20.4 20.5 20.6 20.7 20.7 20.8 20.8 20.8 20.8 20.7 20.6 20.5 20.5 20.4 20.4 20.4 20.3 20.3 20.2 20.2 20.2 20.2 20.1 20.1 20.1 20.1 20.5 20.6 20.7 20.8 20.9 20.9 21.0 21.0 20.9 20.8 20.7 20.6 20.6 20.5 20.5 20.4 20.4 20.3 20.3 20.3 20.2 20.2 20.2 20.1 20.1 20.1 20.6 20.7 20.8 20.9 21.1 21.1 21.2 21.2 21.1 21.0 20.8 20.7 20.7 20.6 20.5 20.5 20.4 20.4 20.3 20.3 20.3 20.2 20.2 20.2 20.1 20.1 20.7 20.8 21.0 21.1 21.3 21.4 21.5 21.5 21.4 21.2 21.0 20.9 20.8 20.7 20.6 20.6 20.5 20.4 20.4 20.3 20.3 20.3 20.2 20.2 20.1 20.1 20.8 21.0 21.2 21.4 21.6 21.8 21.9 21.8 21.6 21.4 21.2 21.1 20.9 20.9 20.8 20.7 20.6 20.5 20.4 20.4 20.3 20.3 20.2 20.2 20.1 20.1 21.0 21.2 21.4 21.7 21.9 22.2 22.4 22.3 22.0 21.7 21.4 21.3 21.1 21.0 20.9 20.8 20.7 20.6 20.5 20.4 20.4 20.3 20.3 20.2 20.1 20.1 21.2 21.4 21.7 22.1 22.4 22.7 23.0 22.8 22.4 22.0 21.7 21.5 21.3 21.2 21.0 20.9 20.8 20.7 20.6 20.5 20.4 20.4 20.3 20.2 20.1 20.1 21.4 21.7 22.1 22.5 23.0 23.5 23.8 23.6 22.9 22.5 22.1 21.8 21.6 21.4 21.2 21.0 20.9 20.8 20.6 20.5 20.5 20.4 20.3 20.2 20.1 20.1 21.7 22.1 22.6 23.3 23.9 24.5 24.9 24.6 23.7 23.0 22.6 22.2 21.9 21.6 21.4 21.2 21.0 20.8 20.7 20.6 20.5 20.4 20.3 20.3 20.1 20.1 22.0 22.9 25.2 27.0 28.8 29.5 27.7 26.0 24.6 23.7 23.1 22.7 22.3 21.9 21.6 21.4 21.1 20.9 20.8 20.7 20.6 20.5 20.4 20.3 20.2 20.1 22.5 24.9 36.2 46.7 50.3 48.7 41.7 34.5 28.0 24.9 23.8 23.2 22.7 22.2 21.9 21.5 21.3 21.1 20.9 20.7 20.6 20.5 20.4 20.3 20.2 20.1 25.7 32.3 51.0 72.7 78.1 74.9 72.6 58.4 36.6 26.3 24.6 23.9 23.2 22.6 22.2 21.8 21.5 21.2 21.0 20.9 20.7 20.6 20.5 20.4 20.2 20.1 28.9 38.3 57.1 81.8 97.3 111.4 126.2 100.7 51.4 29.2 26.2 24.8 23.9 23.2 22.6 22.1 21.7 21.4 21.2 21.0 20.8 20.7 20.6 20.4 20.2 20.1 28.3 35.8 58.3 107.2 183.0 248.6 281.7 249.2 130.6 43.1 28.8 26.3 24.8 23.9 23.1 22.5 22.0 21.6 21.3 21.1 20.9 20.7 20.6 20.4 20.2 20.1 27.2 32.8 61.5 147.9 291.7 409.5 449.0 407.0 238.5 74.2 31.1 27.6 25.7 24.6 23.6 22.9 22.2 21.8 21.4 21.1 20.9 20.7 20.6 20.4 20.2 20.1 26.4 32.5 60.5 139.0 269.1 383.0 415.6 346.7 193.0 66.9 30.3 27.3 25.7 24.5 23.6 22.9 22.3 21.8 21.4 21.1 20.9 20.7 20.6 20.4 20.2 20.1 25.5 30.4 49.9 84.4 137.2 191.1 206.5 157.1 78.0 35.9 27.4 26.0 24.8 23.7 23.1 22.5 22.0 21.6 21.3 21.1 20.9 20.7 20.6 20.4 20.2 20.1 25.7 28.2 36.6 43.0 45.5 54.3 56.3 48.7 37.9 28.9 25.5 24.5 23.7 23.0 22.5 22.0 21.7 21.4 21.2 21.0 20.8 20.7 20.6 20.4 20.2 20.1 23.8 26.2 28.2 29.1 29.5 31.1 32.1 30.9 27.6 25.4 24.3 23.5 22.9 22.4 22.0 21.7 21.4 21.2 21.0 20.8 20.7 20.6 20.5 20.4 20.2 20.1 20.1 20.1 20.1 20.1 20.1 20.1 20.1 20.1 20.1 20.1 20.1 20.1 20.1 20.1 20.1 20.1 20.1 20.1 20.1 20.1 20.1 20.1 20.1 20.1 20.1 20.0 20.1 20.1 20.1 20.2 20.2 20.1 20.2 20.2 20.2 20.2 20.2 20.2 20.1 20.1 20.1 20.1 20.1 20.1 20.1 20.1 20.1 20.1 20.1 20.1 20.1 20.1 20.2 20.2 20.3 20.3 20.3 20.3 20.3 20.3 20.3 20.3 20.3 20.2 20.2 20.2 20.2 20.2 20.2 20.2 20.1 20.1 20.1 20.1 20.1 20.1 20.1 20.1 20.2 20.3 20.3 20.4 20.4 20.4 20.4 20.4 20.4 20.4 20.4 20.3 20.3 20.2 20.2 20.2 20.2 20.2 20.2 20.1 20.1 20.1 20.1 20.1 20.1 20.1 20.3 20.3 20.4 20.4 20.4 20.4 20.5 20.5 20.5 20.5 20.4 20.4 20.3 20.3 20.3 20.3 20.2 20.2 20.2 20.2 20.1 20.1 20.1 20.1 20.1 20.1 20.3 20.4 20.5 20.5 20.5 20.5 20.5 20.6 20.6 20.6 20.5 20.4 20.4 20.3 20.3 20.3 20.3 20.2 20.2 20.2 20.2 20.1 20.1 20.1 20.1 20.1 20.4 20.5 20.5 20.6 20.6 20.6 20.7 20.7 20.7 20.6 20.6 20.5 20.4 20.4 20.4 20.3 20.3 20.3 20.2 20.2 20.2 20.2 20.2 20.1 20.1 20.1 20.5 20.5 20.6 20.7 20.7 20.8 20.8 20.8 20.8 20.7 20.6 20.6 20.5 20.5 20.4 20.4 20.4 20.3 20.3 20.3 20.2 20.2 20.2 20.1 20.1 20.1 20.5 20.6 20.7 20.8 20.9 20.9 21.0 21.0 21.0 20.9 20.7 20.7 20.6 20.5 20.5 20.5 20.4 20.4 20.3 20.3 20.3 20.2 20.2 20.2 20.1 20.1 20.6 20.7 20.8 20.9 21.0 21.1 21.2 21.2 21.1 21.0 20.9 20.8 20.7 20.6 20.6 20.5 20.5 20.4 20.4 20.3 20.3 20.3 20.2 20.2 20.1 20.1 20.7 20.8 21.0 21.1 21.2 21.3 21.4 21.5 21.3 21.2 21.0 20.9 20.8 20.7 20.7 20.6 20.5 20.5 20.4 20.4 20.3 20.3 20.2 20.2 20.1 20.1 20.8 21.0 21.2 21.3 21.5 21.6 21.8 21.8 21.6 21.4 21.2 21.1 21.0 20.9 20.8 20.7 20.6 20.5 20.5 20.4 20.4 20.3 20.3 20.2 20.1 20.1 20.9 21.1 21.4 21.6 21.7 21.9 22.2 22.2 21.9 21.6 21.4 21.3 21.1 21.0 20.9 20.8 20.7 20.6 20.5 20.5 20.4 20.4 20.3 20.3 20.2 20.1 21.1 21.3 21.6 21.9 22.1 22.4 22.7 22.7 22.3 21.9 21.7 21.5 21.3 21.2 21.1 20.9 20.8 20.7 20.6 20.5 20.5 20.4 20.3 20.3 20.2 20.1 21.3 21.6 22.0 22.3 22.6 23.0 23.5 23.4 22.8 22.3 22.0 21.8 21.6 21.4 21.2 21.1 20.9 20.8 20.7 20.6 20.5 20.4 20.4 20.3 20.2 20.1 21.5 22.0 22.5 23.0 23.4 23.8 24.3 24.3 23.5 22.8 22.4 22.1 21.9 21.6 21.4 21.2 21.0 20.9 20.8 20.6 20.5 20.5 20.4 20.3 20.2 20.1 22.0 23.8 27.2 28.4 27.9 27.7 26.9 25.8 24.3 23.4 22.9 22.5 22.2 21.9 21.6 21.4 21.2 21.0 20.8 20.7 20.6 20.5 20.4 20.3 20.2 20.1 23.0 33.6 54.0 58.7 45.5 39.1 39.3 34.3 27.5 24.6 23.6 23.1 22.6 22.2 21.8 21.5 21.3 21.1 20.9 20.8 20.7 20.6 20.5 20.4 20.2 20.1 32.6 59.9 95.1 102.3 71.4 59.2 70.5 53.8 32.2 26.1 24.5 23.7 23.1 22.6 22.1 21.8 21.5 21.3 21.1 20.9 20.8 20.7 20.6 20.4 20.2 20.1 46.1 79.3 114.9 124.8 90.1 90.4 120.7 90.2 46.2 30.4 26.7 24.8 23.9 23.1 22.6 22.1 21.8 21.5 21.2 21.0 20.9 20.7 20.6 20.4 20.2 20.1 44.8 69.8 122.3 173.5 157.1 189.6 255.9 212.3 107.1 38.7 30.1 26.9 24.9 23.9 23.1 22.5 22.0 21.7 21.4 21.1 20.9 20.8 20.6 20.4 20.2 20.1 34.5 52.4 128.5 236.0 240.5 303.5 410.4 365.8 202.5 59.1 32.3 28.6 25.9 24.6 23.6 22.8 22.3 21.8 21.4 21.2 20.9 20.8 20.6 20.4 20.2 20.1 29.8 49.2 125.3 225.6 224.5 284.3 386.8 336.8 184.0 57.2 31.0 27.9 26.0 24.5 23.6 22.9 22.3 21.8 21.4 21.2 20.9 20.8 20.6 20.4 20.2 20.1 33.9 51.0 101.4 145.9 131.2 155.0 202.8 169.1 90.6 38.9 28.8 26.1 24.9 23.7 23.1 22.5 22.1 21.7 21.4 21.1 20.9 20.8 20.6 20.5 20.2 20.1 40.7 52.0 66.2 69.2 56.5 56.8 64.3 62.9 48.3 32.8 26.4 24.5 23.7 23.0 22.5 22.1 21.7 21.5 21.2 21.0 20.9 20.8 20.6 20.5 20.2 20.1 32.6 42.8 42.8 36.4 32.0 31.4 33.1 33.8 30.2 26.1 24.2 23.5 22.9 22.4 22.0 21.7 21.4 21.2 21.0 20.9 20.7 20.6 20.5 20.4 20.2 20.1 20.1 20.1 20.1 20.1 20.1 20.1 20.1 20.1 20.1 20.1 20.1 20.1 20.1 20.1 20.1 20.1 20.1 20.1 20.1 20.1 20.1 20.1 20.1 20.1 20.1 20.1 20.1 20.2 20.2 20.2 20.2 20.2 20.2 20.2 20.2 20.2 20.2 20.2 20.2 20.2 20.1 20.1 20.1 20.1 20.1 20.1 20.1 20.1 20.1 20.1 20.1 20.1 20.2 20.3 20.3 20.3 20.3 20.3 20.3 20.3 20.4 20.4 20.3 20.3 20.2 20.2 20.2 20.2 20.2 20.2 20.2 20.2 20.1 20.1 20.1 20.1 20.1 20.1 20.3 20.3 20.4 20.4 20.4 20.4 20.4 20.4 20.5 20.4 20.4 20.3 20.3 20.3 20.3 20.2 20.2 20.2 20.2 20.2 20.2 20.1 20.1 20.1 20.1 20.1 20.3 20.4 20.4 20.4 20.4 20.4 20.5 20.5 20.5 20.5 20.4 20.4 20.3 20.3 20.3 20.3 20.3 20.2 20.2 20.2 20.2 20.2 20.1 20.1 20.1 20.1 20.3 20.4 20.5 20.5 20.5 20.5 20.5 20.6 20.6 20.6 20.5 20.4 20.4 20.4 20.3 20.3 20.3 20.3 20.3 20.2 20.2 20.2 20.2 20.1 20.1 20.1 20.4 20.5 20.5 20.6 20.6 20.6 20.6 20.7 20.7 20.7 20.6 20.5 20.4 20.4 20.4 20.4 20.3 20.3 20.3 20.3 20.2 20.2 20.2 20.2 20.1 20.1 20.4 20.5 20.6 20.7 20.7 20.7 20.8 20.8 20.8 20.7 20.6 20.6 20.5 20.5 20.5 20.4 20.4 20.4 20.3 20.3 20.3 20.2 20.2 20.2 20.1 20.1 20.5 20.6 20.7 20.8 20.8 20.8 20.9 21.0 20.9 20.8 20.7 20.6 20.6 20.6 20.5 20.5 20.4 20.4 20.4 20.3 20.3 20.3 20.2 20.2 20.2 20.1 20.6 20.7 20.8 20.9 20.9 21.0 21.1 21.1 21.1 21.0 20.8 20.7 20.7 20.6 20.6 20.5 20.5 20.5 20.4 20.4 20.3 20.3 20.3 20.2 20.2 20.1 20.7 20.8 20.9 21.0 21.1 21.2 21.3 21.3 21.3 21.1 21.0 20.9 20.8 20.7 20.7 20.6 20.6 20.5 20.5 20.4 20.4 20.3 20.3 20.3 20.2 20.1 20.8 20.9 21.1 21.2 21.3 21.4 21.6 21.6 21.5 21.3 21.1 21.0 20.9 20.8 20.8 20.7 20.6 20.6 20.5 20.5 20.4 20.4 20.3 20.3 20.2 20.1 20.9 21.1 21.2 21.4 21.5 21.7 21.9 21.9 21.7 21.5 21.3 21.2 21.1 21.0 20.9 20.8 20.7 20.6 20.6 20.5 20.5 20.4 20.4 20.3 20.2 20.1 21.0 21.2 21.5 21.6 21.8 22.0 22.3 22.4 22.1 21.7 21.5 21.4 21.2 21.1 21.0 20.9 20.8 20.7 20.6 20.6 20.5 20.4 20.4 20.3 20.2 20.1 21.2 21.5 21.7 22.0 22.1 22.4 22.9 22.9 22.5 22.1 21.8 21.6 21.5 21.3 21.2 21.0 20.9 20.8 20.7 20.6 20.5 20.5 20.4 20.3 20.2 20.1 21.4 21.8 22.2 22.5 22.6 22.9 23.6 23.6 23.0 22.5 22.2 21.9 21.7 21.5 21.3 21.2 21.0 20.9 20.8 20.7 20.6 20.5 20.4 20.3 20.2 20.1 22.4 24.0 26.4 26.7 25.3 25.0 25.3 25.0 23.8 23.0 22.6 22.3 22.0 21.7 21.5 21.3 21.1 21.0 20.8 20.7 20.6 20.5 20.5 20.4 20.2 20.1 25.9 39.4 57.9 51.5 32.6 30.7 33.5 31.2 27.0 24.1 23.2 22.7 22.4 22.0 21.7 21.5 21.3 21.1 20.9 20.8 20.7 20.6 20.5 20.4 20.2 20.1 45.8 87.6 119.6 91.4 51.3 57.0 64.8 47.9 30.9 25.6 24.1 23.3 22.8 22.4 22.0 21.7 21.4 21.2 21.1 20.9 20.8 20.7 20.6 20.5 20.3 20.1 79.2 133.3 159.4 114.8 72.1 97.9 117.3 83.9 44.7 31.0 26.2 24.4 23.6 22.8 22.4 22.0 21.7 21.4 21.2 21.0 20.9 20.8 20.7 20.5 20.3 20.1 88.2 133.6 180.5 153.2 104.8 155.7 206.1 159.3 79.9 40.0 31.2 26.9 24.7 23.6 22.9 22.3 21.9 21.6 21.3 21.1 20.9 20.8 20.7 20.5 20.3 20.1 62.9 105.1 192.2 198.9 148.8 233.8 324.0 273.3 140.6 49.4 34.5 28.6 25.8 24.3 23.3 22.6 22.1 21.7 21.4 21.1 20.9 20.8 20.6 20.5 20.2 20.1 47.3 97.0 187.1 192.2 149.5 242.8 332.9 283.7 148.8 51.0 32.4 27.7 25.8 24.3 23.3 22.7 22.1 21.7 21.4 21.1 20.9 20.8 20.6 20.5 20.2 20.1 59.9 106.6 163.9 154.1 109.9 145.0 189.7 167.7 102.2 49.5 30.1 25.6 24.6 23.5 22.8 22.4 21.9 21.6 21.3 21.1 21.0 20.8 20.7 20.5 20.3 20.1 61.8 98.9 120.4 104.4 69.1 57.5 65.8 73.5 62.3 40.2 27.0 24.0 23.4 22.8 22.3 22.0 21.7 21.4 21.2 21.0 20.9 20.8 20.7 20.5 20.3 20.1 38.2 63.5 70.6 55.1 40.0 32.7 32.4 35.1 32.5 26.6 23.8 23.2 22.6 22.2 21.9 21.6 21.4 21.2 21.0 20.9 20.8 20.7 20.6 20.5 20.3 20.1 20.1 20.1 20.1 20.1 20.1 20.1 20.1 20.1 20.1 20.2 20.2 20.1 20.1 20.1 20.1 20.1 20.1 20.1 20.1 20.1 20.1 20.1 20.1 20.1 20.1 20.1 20.1 20.2 20.2 20.2 20.2 20.2 20.2 20.2 20.2 20.2 20.2 20.2 20.2 20.2 20.2 20.2 20.2 20.2 20.2 20.1 20.1 20.1 20.1 20.1 20.1 20.1 20.2 20.3 20.3 20.3 20.3 20.3 20.3 20.3 20.4 20.4 20.3 20.3 20.3 20.2 20.2 20.2 20.2 20.2 20.2 20.2 20.2 20.1 20.1 20.1 20.1 20.1 20.3 20.3 20.4 20.4 20.4 20.4 20.4 20.4 20.4 20.4 20.4 20.3 20.3 20.3 20.3 20.3 20.2 20.2 20.2 20.2 20.2 20.2 20.1 20.1 20.1 20.1 20.3 20.4 20.4 20.4 20.4 20.4 20.4 20.5 20.5 20.5 20.4 20.4 20.3 20.3 20.3 20.3 20.3 20.3 20.2 20.2 20.2 20.2 20.2 20.2 20.1 20.1 20.3 20.4 20.4 20.5 20.5 20.5 20.5 20.5 20.6 20.5 20.5 20.4 20.4 20.4 20.3 20.3 20.3 20.3 20.3 20.2 20.2 20.2 20.2 20.2 20.1 20.1 20.4 20.4 20.5 20.5 20.5 20.6 20.6 20.6 20.6 20.6 20.5 20.5 20.4 20.4 20.4 20.4 20.3 20.3 20.3 20.3 20.3 20.2 20.2 20.2 20.2 20.1 20.4 20.5 20.6 20.6 20.6 20.6 20.7 20.7 20.7 20.7 20.6 20.5 20.5 20.5 20.4 20.4 20.4 20.4 20.3 20.3 20.3 20.3 20.2 20.2 20.2 20.1 20.5 20.6 20.6 20.7 20.7 20.7 20.8 20.8 20.8 20.8 20.7 20.6 20.5 20.5 20.5 20.5 20.4 20.4 20.4 20.3 20.3 20.3 20.3 20.2 20.2 20.1 20.5 20.6 20.7 20.8 20.8 20.9 20.9 21.0 20.9 20.9 20.8 20.7 20.6 20.6 20.6 20.5 20.5 20.4 20.4 20.4 20.3 20.3 20.3 20.3 20.2 20.1 20.6 20.7 20.8 20.9 20.9 21.0 21.1 21.2 21.1 21.0 20.9 20.8 20.7 20.7 20.6 20.6 20.5 20.5 20.4 20.4 20.4 20.3 20.3 20.3 20.2 20.2 20.7 20.8 20.9 21.0 21.1 21.2 21.3 21.4 21.3 21.1 21.0 20.9 20.8 20.8 20.7 20.6 20.6 20.5 20.5 20.5 20.4 20.4 20.3 20.3 20.2 20.2 20.8 20.9 21.1 21.2 21.2 21.4 21.6 21.6 21.5 21.3 21.2 21.0 21.0 20.9 20.8 20.7 20.7 20.6 20.5 20.5 20.4 20.4 20.4 20.3 20.2 20.2 20.9 21.1 21.2 21.3 21.4 21.6 21.9 22.0 21.8 21.5 21.4 21.2 21.1 21.0 20.9 20.8 20.7 20.7 20.6 20.5 20.5 20.4 20.4 20.3 20.2 20.1 21.0 21.3 21.5 21.6 21.7 22.0 22.4 22.4 22.1 21.8 21.6 21.4 21.3 21.2 21.0 20.9 20.8 20.7 20.7 20.6 20.5 20.5 20.4 20.3 20.2 20.1 21.4 21.6 21.8 21.9 22.0 22.4 22.9 22.9 22.5 22.1 21.9 21.7 21.5 21.3 21.2 21.0 20.9 20.8 20.7 20.6 20.6 20.5 20.4 20.4 20.2 20.1 23.4 23.3 23.7 23.8 23.2 23.6 24.2 23.9 23.1 22.5 22.3 22.0 21.8 21.5 21.3 21.2 21.0 20.9 20.8 20.7 20.6 20.5 20.5 20.4 20.2 20.1 33.7 39.2 43.3 33.7 26.6 28.6 28.1 26.7 24.9 23.2 22.7 22.4 22.0 21.8 21.5 21.3 21.1 21.0 20.9 20.8 20.7 20.6 20.5 20.4 20.3 20.2 69.5 99.6 94.0 53.8 47.4 60.0 52.1 37.2 28.0 24.8 23.4 22.9 22.4 22.1 21.8 21.5 21.3 21.1 21.0 20.9 20.8 20.7 20.6 20.5 20.3 20.2 120.2 164.4 134.7 68.0 73.3 101.8 95.0 68.2 41.9 30.3 25.1 23.8 23.2 22.5 22.1 21.8 21.5 21.3 21.1 21.0 20.8 20.8 20.7 20.5 20.3 20.2 135.4 181.9 153.5 86.1 103.7 151.0 155.9 116.6 62.1 41.1 30.9 25.6 24.2 23.1 22.5 22.1 21.7 21.4 21.2 21.0 20.9 20.8 20.7 20.5 20.3 20.2 97.2 154.8 158.5 117.5 164.9 233.3 241.3 183.1 89.9 49.6 35.0 27.1 25.2 23.7 22.9 22.3 21.9 21.5 21.3 21.0 20.9 20.7 20.6 20.5 20.3 20.1 76.5 142.9 153.9 126.8 191.0 260.7 260.4 203.5 108.8 53.9 33.1 26.5 25.1 23.8 22.9 22.3 21.9 21.5 21.3 21.0 20.9 20.7 20.6 20.5 20.3 20.1 87.2 154.6 167.7 135.4 137.1 157.4 156.9 136.9 93.1 52.5 30.2 24.8 24.0 23.2 22.5 22.1 21.7 21.4 21.2 21.0 20.9 20.8 20.7 20.5 20.3 20.2 69.3 130.3 158.3 131.3 83.8 57.9 57.0 63.3 55.9 38.0 26.1 23.5 23.0 22.5 22.1 21.8 21.5 21.3 21.1 21.0 20.9 20.8 20.7 20.5 20.3 20.2 37.0 72.7 89.9 74.7 52.0 34.6 29.9 31.1 29.3 25.2 23.3 22.8 22.3 22.0 21.7 21.4 21.2 21.1 20.9 20.8 20.7 20.7 20.6 20.5 20.3 20.2 20.1 20.1 20.1 20.1 20.1 20.1 20.1 20.1 20.1 20.2 20.2 20.2 20.1 20.1 20.1 20.1 20.1 20.1 20.1 20.1 20.1 20.1 20.1 20.1 20.1 20.1 20.1 20.2 20.2 20.2 20.2 20.2 20.2 20.2 20.2 20.2 20.2 20.2 20.2 20.2 20.2 20.2 20.2 20.2 20.2 20.2 20.1 20.1 20.1 20.1 20.1 20.1 20.2 20.3 20.3 20.3 20.3 20.3 20.3 20.3 20.3 20.4 20.3 20.3 20.3 20.2 20.2 20.2 20.2 20.2 20.2 20.2 20.2 20.2 20.1 20.1 20.1 20.1 20.3 20.3 20.3 20.3 20.3 20.3 20.3 20.4 20.4 20.4 20.4 20.3 20.3 20.3 20.3 20.2 20.2 20.2 20.2 20.2 20.2 20.2 20.2 20.1 20.1 20.1 20.3 20.3 20.4 20.4 20.4 20.4 20.4 20.4 20.4 20.4 20.4 20.3 20.3 20.3 20.3 20.3 20.3 20.3 20.2 20.2 20.2 20.2 20.2 20.2 20.1 20.1 20.3 20.4 20.4 20.4 20.4 20.4 20.4 20.5 20.5 20.5 20.4 20.4 20.3 20.3 20.3 20.3 20.3 20.3 20.3 20.2 20.2 20.2 20.2 20.2 20.2 20.1 20.3 20.4 20.4 20.5 20.5 20.5 20.5 20.5 20.6 20.5 20.5 20.4 20.4 20.4 20.4 20.3 20.3 20.3 20.3 20.3 20.2 20.2 20.2 20.2 20.2 20.1 20.4 20.4 20.5 20.5 20.5 20.6 20.6 20.6 20.6 20.6 20.5 20.5 20.4 20.4 20.4 20.4 20.4 20.3 20.3 20.3 20.3 20.2 20.2 20.2 20.2 20.2 20.4 20.5 20.5 20.6 20.6 20.6 20.7 20.7 20.7 20.7 20.6 20.5 20.5 20.5 20.4 20.4 20.4 20.4 20.3 20.3 20.3 20.3 20.3 20.2 20.2 20.2 20.5 20.6 20.6 20.7 20.7 20.7 20.8 20.8 20.8 20.8 20.7 20.6 20.6 20.5 20.5 20.5 20.4 20.4 20.4 20.3 20.3 20.3 20.3 20.3 20.2 20.2 20.5 20.6 20.7 20.8 20.8 20.9 20.9 21.0 20.9 20.9 20.8 20.7 20.6 20.6 20.6 20.5 20.5 20.4 20.4 20.4 20.3 20.3 20.3 20.3 20.2 20.2 20.6 20.7 20.8 20.8 20.9 21.0 21.1 21.2 21.1 21.0 20.9 20.8 20.7 20.7 20.6 20.6 20.5 20.5 20.4 20.4 20.4 20.3 20.3 20.3 20.2 20.2 20.7 20.8 20.9 21.0 21.1 21.2 21.3 21.4 21.3 21.1 21.0 20.9 20.8 20.8 20.7 20.6 20.6 20.5 20.5 20.4 20.4 20.4 20.3 20.3 20.2 20.2 20.8 20.9 21.0 21.1 21.2 21.4 21.6 21.7 21.5 21.3 21.2 21.1 21.0 20.9 20.8 20.7 20.7 20.6 20.5 20.5 20.4 20.4 20.4 20.3 20.2 20.2 20.9 21.1 21.2 21.3 21.4 21.7 22.0 22.0 21.8 21.6 21.4 21.2 21.1 21.0 20.9 20.8 20.7 20.6 20.6 20.5 20.5 20.4 20.4 20.3 20.2 20.2 21.2 21.3 21.4 21.5 21.6 22.0 22.4 22.4 22.1 21.8 21.6 21.4 21.3 21.2 21.0 20.9 20.8 20.7 20.6 20.6 20.5 20.4 20.4 20.3 20.2 20.2 23.7 22.6 22.2 22.0 22.2 22.9 23.3 23.1 22.5 22.2 21.9 21.7 21.5 21.3 21.2 21.0 20.9 20.8 20.7 20.6 20.5 20.5 20.4 20.4 20.3 20.2 38.8 34.5 27.7 23.1 24.4 24.8 24.8 24.1 23.2 22.7 22.3 22.0 21.7 21.5 21.3 21.1 21.0 20.9 20.8 20.7 20.6 20.5 20.5 20.4 20.3 20.2 85.0 79.5 48.0 30.9 38.3 38.6 34.5 28.8 26.5 24.6 23.0 22.4 22.1 21.8 21.5 21.3 21.1 21.0 20.9 20.8 20.7 20.6 20.6 20.5 20.3 20.2 140.5 140.8 76.8 40.0 52.6 54.5 54.4 49.5 42.5 32.4 25.1 23.1 22.6 22.1 21.8 21.5 21.3 21.1 21.0 20.9 20.8 20.7 20.6 20.5 20.3 20.2 146.8 170.7 95.9 49.3 72.6 89.7 112.4 99.4 66.8 46.4 31.2 24.4 23.4 22.6 22.1 21.8 21.5 21.2 21.1 20.9 20.8 20.7 20.6 20.5 20.3 20.2 107.9 150.7 103.7 92.2 144.0 172.2 192.4 147.6 82.2 53.9 34.8 25.6 24.2 23.1 22.4 22.0 21.6 21.3 21.1 20.9 20.8 20.6 20.6 20.4 20.3 20.2 95.4 139.1 117.4 140.4 198.3 208.2 201.7 152.4 92.1 55.9 33.5 25.3 24.1 23.2 22.4 22.0 21.6 21.3 21.1 20.9 20.8 20.7 20.6 20.5 20.3 20.2 89.1 145.6 152.1 153.8 153.4 130.7 117.3 99.9 73.2 47.5 30.6 24.1 23.3 22.7 22.1 21.8 21.5 21.2 21.1 20.9 20.8 20.7 20.6 20.5 20.3 20.2 57.7 115.1 144.6 131.6 94.2 54.4 42.8 42.7 37.6 30.5 25.5 23.0 22.5 22.1 21.8 21.5 21.3 21.1 21.0 20.9 20.8 20.7 20.6 20.5 20.3 20.2 33.7 61.7 74.7 70.1 55.6 33.9 27.0 26.3 24.9 23.5 22.8 22.4 22.0 21.7 21.5 21.3 21.1 20.9 20.8 20.7 20.7 20.6 20.5 20.5 20.3 20.2 20.1 20.1 20.1 20.1 20.1 20.1 20.1 20.1 20.1 20.2 20.2 20.2 20.2 20.2 20.2 20.2 20.2 20.2 20.2 20.1 20.1 20.1 20.1 20.1 20.1 20.1 20.1 20.2 20.2 20.2 20.2 20.1 20.1 20.2 20.2 20.2 20.2 20.2 20.2 20.2 20.2 20.2 20.2 20.2 20.2 20.2 20.1 20.1 20.1 20.1 20.1 20.1 20.2 20.2 20.2 20.3 20.3 20.2 20.2 20.3 20.3 20.3 20.3 20.3 20.2 20.2 20.2 20.2 20.2 20.2 20.2 20.2 20.2 20.2 20.1 20.1 20.1 20.1 20.2 20.3 20.3 20.3 20.3 20.3 20.3 20.3 20.3 20.4 20.3 20.3 20.3 20.2 20.2 20.2 20.2 20.2 20.2 20.2 20.2 20.2 20.2 20.1 20.1 20.1 20.3 20.3 20.3 20.3 20.3 20.3 20.3 20.3 20.4 20.4 20.4 20.3 20.3 20.3 20.3 20.2 20.2 20.2 20.2 20.2 20.2 20.2 20.2 20.2 20.1 20.1 20.3 20.3 20.3 20.4 20.4 20.4 20.4 20.4 20.4 20.4 20.4 20.3 20.3 20.3 20.3 20.3 20.3 20.3 20.2 20.2 20.2 20.2 20.2 20.2 20.2 20.1 20.3 20.3 20.4 20.4 20.4 20.4 20.4 20.5 20.5 20.5 20.4 20.4 20.3 20.3 20.3 20.3 20.3 20.3 20.3 20.2 20.2 20.2 20.2 20.2 20.2 20.2 20.3 20.4 20.4 20.5 20.5 20.5 20.5 20.5 20.5 20.5 20.5 20.4 20.4 20.4 20.3 20.3 20.3 20.3 20.3 20.3 20.2 20.2 20.2 20.2 20.2 20.2 20.4 20.4 20.5 20.5 20.5 20.6 20.6 20.6 20.6 20.6 20.5 20.5 20.4 20.4 20.4 20.4 20.3 20.3 20.3 20.3 20.3 20.2 20.2 20.2 20.2 20.2 20.4 20.5 20.5 20.6 20.6 20.6 20.7 20.7 20.7 20.7 20.6 20.5 20.5 20.5 20.4 20.4 20.4 20.4 20.3 20.3 20.3 20.3 20.2 20.2 20.2 20.2 20.5 20.5 20.6 20.6 20.7 20.7 20.8 20.8 20.8 20.8 20.7 20.6 20.6 20.5 20.5 20.5 20.4 20.4 20.4 20.3 20.3 20.3 20.3 20.2 20.2 20.2 20.5 20.6 20.7 20.7 20.8 20.9 20.9 21.0 21.0 20.9 20.8 20.7 20.6 20.6 20.5 20.5 20.5 20.4 20.4 20.4 20.3 20.3 20.3 20.3 20.2 20.2 20.6 20.7 20.7 20.8 20.9 21.0 21.1 21.2 21.1 21.0 20.9 20.8 20.7 20.7 20.6 20.6 20.5 20.5 20.4 20.4 20.4 20.3 20.3 20.3 20.2 20.2 20.7 20.8 20.8 20.9 21.0 21.2 21.3 21.4 21.3 21.2 21.0 20.9 20.8 20.8 20.7 20.6 20.6 20.5 20.5 20.4 20.4 20.4 20.3 20