<?xml version="1.0"?>
<VTKFile type="RectilinearGrid" version="1.0" byte_order="LittleEndian" header_type="UInt64">
<RectilinearGrid WholeExtent="25 50 25 50 0 15">
<Piece Extent="25 50 25 50 0 15">
<Coordinates>
<DataArray type="Float64" Name="Array X-Axis" format="ascii" RangeMin="15.0" RangeMax="30.0">
15.0 15.6 16.2 16.8 17.4 18.0 18.6 19.2 19.8 20.4 21.0 21.6 22.2 22.8 23.4 24.0 24.6 25.2 25.8 26.4 27.0 27.6 28.2 28.8 29.4 30.0 
</DataArray>
<DataArray type="Float64" Name="Array Y-Axis" format="ascii" RangeMin="15.0" RangeMax="30.0">
15.0 15.6 16.2 16.8 17.4 18.0 18.6 19.2 19.8 20.4 21.0 21.6 22.2 22.8 23.4 24.0 24.6 25.2 25.8 26.4 27.0 27.6 28.2 28.8 29.4 30.0 
</DataArray>
<DataArray type="Float64" Name="Array Z-Axis" format="ascii" RangeMin="0.0" RangeMax="9.0">
0.0 0.6 1.2 1.8 2.4 3.0 3.6 4.2 4.8 5.4 6.0 6.6 7.2 7.8 8.4 9.0 
</DataArray>
</Coordinates>
<PointData>
<DataArray Name="TEMPERATURE" NumberOfComponents="1" type="Float64" format="ascii">
23.0 24.6 25.3 26.7 28.3 29.4 29.2 27.2 25.5 24.6 24.0 23.5 23.0 22.5 22.1 21.8 21.6 21.4 21.2 21.0 20.8 20.6 20.4 20.3 20.1 20.1 23.5 24.0 24.6 25.9 26.9 27.2 27.2 26.2 24.8 24.0 23.4 23.0 22.6 22.2 21.8 21.6 21.4 21.2 21.0 20.9 20.7 20.6 20.4 20.3 20.1 20.1 23.1 23.5 23.9 24.8 25.4 25.5 25.8 25.3 24.3 23.6 23.1 22.7 22.3 22.0 21.7 21.5 21.3 21.1 20.9 20.8 20.6 20.5 20.4 20.2 20.1 20.1 22.7 23.0 23.4 23.9 24.4 24.6 24.9 24.6 23.9 23.3 22.8 22.4 22.1 21.9 21.6 21.4 21.2 21.0 20.9 20.7 20.6 20.5 20.4 20.2 20.1 20.1 22.4 22.6 22.9 23.3 23.6 23.9 24.1 24.0 23.5 23.0 22.6 22.2 21.9 21.7 21.5 21.3 21.1 20.9 20.8 20.7 20.6 20.4 20.3 20.2 20.1 20.1 22.1 22.3 22.5 22.8 23.1 23.2 23.4 23.4 23.1 22.7 22.4 22.0 21.8 21.6 21.4 21.2 21.0 20.9 20.7 20.6 20.5 20.4 20.3 20.2 20.1 20.1 21.9 22.0 22.1 22.5 22.8 22.7 22.8 22.9 22.7 22.5 22.2 21.9 21.6 21.4 21.3 21.1 21.0 20.8 20.7 20.6 20.5 20.4 20.3 20.2 20.1 20.1 21.6 21.7 21.8 22.1 22.3 22.2 22.3 22.4 22.4 22.2 22.0 21.8 21.6 21.3 21.2 21.0 20.9 20.8 20.7 20.5 20.4 20.4 20.3 20.2 20.1 20.1 21.4 21.5 21.6 21.8 21.9 21.9 22.0 22.1 22.1 21.9 21.8 21.7 21.5 21.3 21.1 21.0 20.8 20.7 20.6 20.5 20.4 20.3 20.2 20.2 20.1 20.0 21.3 21.3 21.4 21.6 21.6 21.6 21.7 21.8 21.8 21.7 21.6 21.6 21.4 21.3 21.1 20.9 20.8 20.7 20.6 20.5 20.4 20.3 20.2 20.2 20.1 20.0 21.1 21.1 21.2 21.4 21.4 21.4 21.4 21.5 21.6 21.5 21.4 21.4 21.3 21.2 21.0 20.9 20.7 20.6 20.5 20.4 20.4 20.3 20.2 20.1 20.1 20.0 21.0 21.0 21.1 21.2 21.2 21.2 21.1 21.2 21.3 21.3 21.2 21.2 21.2 21.1 21.0 20.8 20.7 20.6 20.5 20.4 20.3 20.3 20.2 20.1 20.1 20.0 20.8 20.9 20.9 21.0 21.0 21.0 21.0 21.0 21.1 21.1 21.1 21.0 21.0 21.0 21.0 20.8 20.7 20.6 20.5 20.4 20.3 20.3 20.2 20.1 20.1 20.0 20.7 20.7 20.8 20.9 20.9 20.8 20.8 20.9 21.0 21.0 20.9 20.9 20.9 20.9 20.9 20.8 20.7 20.6 20.5 20.4 20.3 20.2 20.2 20.1 20.1 20.0 20.6 20.6 20.7 20.8 20.8 20.7 20.7 20.8 20.8 20.8 20.8 20.7 20.7 20.7 20.8 20.8 20.7 20.6 20.5 20.4 20.3 20.2 20.2 20.1 20.1 20.0 20.5 20.6 20.6 20.7 20.7 20.6 20.6 20.6 20.7 20.7 20.7 20.6 20.6 20.6 20.6 20.7 20.7 20.6 20.5 20.4 20.3 20.2 20.2 20.1 20.1 20.0 20.5 20.5 20.6 20.6 20.6 20.5 20.5 20.6 20.6 20.6 20.6 20.5 20.5 20.5 20.5 20.6 20.6 20.6 20.5 20.4 20.3 20.2 20.1 20.1 20.1 20.0 20.4 20.4 20.5 20.5 20.5 20.4 20.4 20.5 20.5 20.5 20.5 20.4 20.4 20.4 20.4 20.5 20.5 20.5 20.5 20.4 20.3 20.2 20.1 20.1 20.0 20.0 20.3 20.4 20.4 20.4 20.4 20.4 20.3 20.4 20.4 20.4 20.4 20.4 20.3 20.3 20.3 20.3 20.4 20.4 20.4 20.4 20.3 20.2 20.1 20.1 20.0 20.0 20.3 20.3 20.3 20.3 20.3 20.3 20.3 20.3 20.3 20.4 20.3 20.3 20.3 20.3 20.2 20.3 20.3 20.3 20.3 20.3 20.3 20.2 20.1 20.1 20.0 20.0 20.2 20.2 20.3 20.3 20.2 20.2 20.2 20.2 20.3 20.3 20.3 20.2 20.2 20.2 20.2 20.2 20.2 20.2 20.2 20.3 20.3 20.2 20.1 20.1 20.0 20.0 20.2 20.2 20.2 20.2 20.2 20.2 20.2 20.2 20.2 20.2 20.2 20.2 20.2 20.2 20.1 20.1 20.2 20.2 20.2 20.2 20.2 20.2 20.2 20.1 20.0 20.0 20.1 20.1 20.1 20.1 20.1 20.1 20.1 20.1 20.1 20.2 20.2 20.1 20.1 20.1 20.1 20.1 20.1 20.1 20.1 20.1 20.1 20.2 20.2 20.1 20.0 20.0 20.1 20.1 20.1 20.1 20.1 20.1 20.1 20.1 20.1 20.1 20.1 20.1 20.1 20.1 20.1 20.1 20.1 20.1 20.1 20.1 20.1 20.1 20.1 20.1 20.0 20.0 20.0 20.0 20.0 20.0 20.0 20.0 20.0 20.0 20.0 20.1 20.1 20.0 20.0 20.0 20.0 20.0 20.0 20.0 20.0 20.0 20.0 20.0 20.0 20.1 20.0 20.0 20.0 20.0 20.0 20.0 20.0 20.0 20.0 20.0 20.0 20.0 20.0 20.0 20.0 20.0 20.0 20.0 20.0 20.0 20.0 20.0 20.0 20.0 20.0 20.0 20.0 20.0 23.1 24.7 25.6 27.3 29.2 30.5 30.2 28.1 26.1 25.0 24.2 23.6 23.0 22.5 22.2 21.8 21.6 21.4 21.2 21.0 20.8 20.6 20.4 20.3 20.1 20.1 23.7 24.2 24.8 26.1 27.3 27.8 27.7 26.5 25.1 24.3 23.7 23.1 22.6 22.2 21.9 21.6 21.4 21.2 21.0 20.8 20.7 20.5 20.4 20.2 20.1 20.1 23.2 23.6 24.1 24.9 25.7 26.0 26.2 25.6 24.5 23.8 23.2 22.8 22.4 22.0 21.7 21.5 21.3 21.1 20.9 20.7 20.6 20.5 20.4 20.2 20.1 20.1 22.8 23.1 23.5 24.1 24.6 24.9 25.2 24.8 24.0 23.4 22.9 22.5 22.2 21.9 21.6 21.4 21.2 21.0 20.8 20.7 20.6 20.4 20.3 20.2 20.1 20.0 22.5 22.7 22.9 23.4 23.8 24.1 24.3 24.1 23.6 23.1 22.7 22.3 22.0 21.7 21.5 21.3 21.1 20.9 20.8 20.6 20.5 20.4 20.3 20.2 20.1 20.0 22.1 22.3 22.5 22.9 23.2 23.4 23.6 23.5 23.2 22.8 22.5 22.1 21.8 21.5 21.3 21.2 21.0 20.9 20.7 20.6 20.5 20.4 20.3 20.2 20.1 20.1 21.8 22.0 22.2 22.6 22.8 22.8 22.9 23.0 22.8 22.5 22.2 22.0 21.7 21.4 21.2 21.1 20.9 20.8 20.7 20.6 20.5 20.4 20.3 20.2 20.1 20.0 21.6 21.7 21.9 22.2 22.4 22.3 22.4 22.5 22.4 22.2 22.1 21.8 21.6 21.3 21.1 21.0 20.9 20.7 20.6 20.5 20.4 20.3 20.2 20.2 20.1 20.0 21.4 21.5 21.6 21.8 21.9 21.9 22.0 22.1 22.1 21.9 21.8 21.7 21.5 21.3 21.1 20.9 20.8 20.7 20.6 20.5 20.4 20.3 20.2 20.1 20.1 20.0 21.2 21.3 21.4 21.6 21.6 21.7 21.7 21.8 21.8 21.7 21.6 21.6 21.4 21.3 21.0 20.9 20.7 20.6 20.5 20.4 20.4 20.3 20.2 20.1 20.1 20.0 21.1 21.1 21.2 21.4 21.4 21.4 21.4 21.5 21.6 21.5 21.4 21.4 21.3 21.2 21.0 20.8 20.7 20.6 20.5 20.4 20.3 20.3 20.2 20.1 20.1 20.0 20.9 21.0 21.1 21.2 21.2 21.2 21.2 21.2 21.3 21.3 21.2 21.2 21.2 21.1 21.0 20.8 20.7 20.5 20.4 20.4 20.3 20.2 20.2 20.1 20.1 20.0 20.8 20.8 20.9 21.0 21.0 21.0 21.0 21.0 21.1 21.1 21.0 21.0 21.0 21.0 21.0 20.8 20.7 20.5 20.4 20.3 20.3 20.2 20.2 20.1 20.1 20.0 20.7 20.7 20.8 20.8 20.8 20.8 20.8 20.9 20.9 20.9 20.9 20.8 20.8 20.9 20.9 20.8 20.7 20.5 20.4 20.3 20.3 20.2 20.2 20.1 20.0 20.0 20.6 20.6 20.7 20.7 20.7 20.7 20.7 20.7 20.8 20.8 20.7 20.7 20.7 20.7 20.8 20.8 20.7 20.6 20.4 20.3 20.2 20.2 20.1 20.1 20.0 20.0 20.5 20.5 20.6 20.6 20.6 20.6 20.6 20.6 20.7 20.7 20.6 20.6 20.6 20.6 20.6 20.7 20.6 20.6 20.4 20.3 20.2 20.2 20.1 20.1 20.0 20.0 20.4 20.4 20.5 20.5 20.5 20.5 20.5 20.5 20.6 20.6 20.5 20.5 20.5 20.5 20.5 20.6 20.6 20.5 20.4 20.3 20.2 20.2 20.1 20.1 20.0 20.0 20.3 20.4 20.4 20.5 20.4 20.4 20.4 20.4 20.5 20.5 20.4 20.4 20.4 20.4 20.4 20.4 20.5 20.5 20.4 20.4 20.3 20.2 20.1 20.1 20.0 20.0 20.3 20.3 20.4 20.4 20.4 20.3 20.3 20.3 20.4 20.4 20.4 20.3 20.3 20.3 20.3 20.3 20.4 20.4 20.4 20.4 20.3 20.2 20.1 20.1 20.0 20.0 20.2 20.3 20.3 20.3 20.3 20.3 20.3 20.3 20.3 20.3 20.3 20.3 20.2 20.2 20.2 20.2 20.3 20.3 20.3 20.3 20.3 20.2 20.1 20.1 20.0 20.0 20.2 20.2 20.2 20.2 20.2 20.2 20.2 20.2 20.2 20.3 20.2 20.2 20.2 20.2 20.2 20.2 20.2 20.2 20.2 20.3 20.3 20.2 20.1 20.1 20.0 20.0 20.1 20.2 20.2 20.2 20.2 20.2 20.1 20.2 20.2 20.2 20.2 20.2 20.2 20.1 20.1 20.1 20.1 20.1 20.2 20.2 20.2 20.2 20.2 20.1 20.0 20.0 20.1 20.1 20.1 20.1 20.1 20.1 20.1 20.1 20.1 20.1 20.1 20.1 20.1 20.1 20.1 20.1 20.1 20.1 20.1 20.1 20.1 20.2 20.1 20.1 20.0 20.0 20.1 20.1 20.1 20.1 20.1 20.1 20.1 20.1 20.1 20.1 20.1 20.1 20.1 20.1 20.1 20.1 20.1 20.1 20.1 20.1 20.1 20.1 20.1 20.1 20.0 20.0 20.0 20.0 20.0 20.0 20.0 20.0 20.0 20.0 20.0 20.0 20.0 20.0 20.0 20.0 20.0 20.0 20.0 20.0 20.0 20.0 20.0 20.0 20.0 20.1 20.0 20.0 20.0 20.0 20.0 20.0 20.0 20.0 20.0 20.0 20.0 20.0 20.0 20.0 20.0 20.0 20.0 20.0 20.0 20.0 20.0 20.0 20.0 20.0 20.0 20.0 20.0 20.0 23.3 25.3 26.5 28.4 31.1 32.9 32.7 29.9 27.1 25.7 24.7 23.9 23.2 22.7 22.3 21.9 21.6 21.3 21.1 20.9 20.7 20.5 20.4 20.3 20.1 20.1 23.9 24.6 25.3 26.5 28.0 29.1 29.0 27.5 25.8 24.9 24.1 23.4 22.8 22.4 22.0 21.6 21.4 21.1 20.9 20.8 20.6 20.5 20.3 20.2 20.1 20.1 23.4 23.9 24.4 25.3 26.4 27.0 27.1 26.2 25.0 24.2 23.6 23.0 22.5 22.1 21.8 21.5 21.2 21.0 20.8 20.7 20.6 20.4 20.3 20.2 20.1 20.0 22.9 23.3 23.7 24.4 25.1 25.4 25.7 25.3 24.4 23.8 23.2 22.7 22.3 21.9 21.6 21.4 21.1 20.9 20.8 20.6 20.5 20.4 20.3 20.2 20.1 20.0 22.5 22.8 23.1 23.5 24.0 24.4 24.7 24.4 23.8 23.3 22.9 22.4 22.1 21.7 21.5 21.3 21.1 20.9 20.7 20.6 20.5 20.4 20.3 20.2 20.1 20.0 22.2 22.4 22.6 23.0 23.4 23.8 24.0 23.7 23.3 22.9 22.6 22.2 21.9 21.6 21.3 21.1 21.0 20.8 20.7 20.6 20.4 20.3 20.3 20.2 20.1 20.0 21.9 22.1 22.3 22.8 23.0 23.1 23.2 23.1 22.8 22.6 22.3 22.0 21.7 21.4 21.2 21.0 20.9 20.7 20.6 20.5 20.4 20.3 20.2 20.2 20.1 20.0 21.7 21.9 22.2 22.5 22.6 22.5 22.5 22.6 22.4 22.2 22.1 21.8 21.6 21.3 21.1 20.9 20.8 20.7 20.6 20.5 20.4 20.3 20.2 20.1 20.1 20.0 21.6 21.9 22.1 22.3 22.2 22.1 22.1 22.2 22.1 21.9 21.8 21.7 21.5 21.3 21.0 20.9 20.7 20.6 20.5 20.4 20.3 20.3 20.2 20.1 20.1 20.0 21.4 21.7 22.0 22.1 21.9 21.8 21.8 21.9 21.8 21.7 21.6 21.5 21.4 21.2 21.0 20.8 20.7 20.5 20.5 20.4 20.3 20.2 20.2 20.1 20.1 20.0 21.2 21.4 21.7 21.8 21.6 21.5 21.5 21.5 21.5 21.4 21.3 21.3 21.2 21.1 21.0 20.8 20.6 20.5 20.4 20.3 20.3 20.2 20.2 20.1 20.0 20.0 21.1 21.3 21.6 21.6 21.3 21.2 21.2 21.3 21.3 21.2 21.1 21.1 21.1 21.1 20.9 20.8 20.6 20.5 20.4 20.3 20.3 20.2 20.1 20.1 20.0 20.0 20.9 21.2 21.4 21.2 21.1 21.0 21.0 21.0 21.1 21.1 21.0 20.9 20.9 20.9 20.9 20.8 20.6 20.5 20.4 20.3 20.2 20.2 20.1 20.1 20.0 20.0 20.8 21.0 21.0 20.9 20.8 20.8 20.8 20.8 20.9 20.9 20.8 20.8 20.8 20.8 20.8 20.7 20.6 20.5 20.4 20.3 20.2 20.2 20.1 20.1 20.0 20.0 20.7 20.8 20.8 20.7 20.7 20.7 20.7 20.7 20.7 20.7 20.7 20.7 20.6 20.7 20.7 20.7 20.6 20.5 20.4 20.3 20.2 20.2 20.1 20.1 20.0 20.0 20.5 20.5 20.6 20.6 20.6 20.5 20.5 20.6 20.6 20.6 20.6 20.5 20.5 20.5 20.6 20.6 20.6 20.5 20.4 20.3 20.2 20.1 20.1 20.1 20.0 20.0 20.3 20.4 20.4 20.5 20.5 20.5 20.4 20.5 20.5 20.5 20.5 20.4 20.4 20.4 20.5 20.5 20.5 20.5 20.4 20.3 20.2 20.1 20.1 20.1 20.0 20.0 20.3 20.3 20.3 20.4 20.4 20.4 20.4 20.4 20.4 20.4 20.4 20.4 20.3 20.3 20.4 20.4 20.4 20.4 20.4 20.3 20.2 20.1 20.1 20.1 20.0 20.0 20.2 20.2 20.3 20.3 20.3 20.3 20.3 20.3 20.3 20.3 20.3 20.3 20.3 20.3 20.3 20.3 20.3 20.4 20.4 20.3 20.2 20.2 20.1 20.1 20.0 20.0 20.2 20.2 20.2 20.3 20.3 20.2 20.2 20.2 20.3 20.3 20.3 20.2 20.2 20.2 20.2 20.2 20.2 20.3 20.3 20.3 20.3 20.2 20.1 20.1 20.0 20.0 20.1 20.2 20.2 20.2 20.2 20.2 20.2 20.2 20.2 20.2 20.2 20.2 20.2 20.2 20.2 20.2 20.2 20.2 20.2 20.2 20.2 20.2 20.1 20.1 20.0 20.0 20.1 20.1 20.1 20.1 20.1 20.1 20.1 20.1 20.1 20.2 20.2 20.1 20.1 20.1 20.1 20.1 20.1 20.1 20.1 20.2 20.2 20.2 20.1 20.1 20.0 20.0 20.1 20.1 20.1 20.1 20.1 20.1 20.1 20.1 20.1 20.1 20.1 20.1 20.1 20.1 20.1 20.1 20.1 20.1 20.1 20.1 20.1 20.1 20.1 20.1 20.0 20.0 20.0 20.1 20.1 20.1 20.1 20.1 20.1 20.1 20.1 20.1 20.1 20.1 20.1 20.1 20.1 20.0 20.0 20.0 20.0 20.0 20.1 20.1 20.1 20.1 20.0 20.0 20.0 20.0 20.0 20.0 20.0 20.0 20.0 20.0 20.0 20.0 20.0 20.0 20.0 20.0 20.0 20.0 20.0 20.0 20.0 20.0 20.0 20.0 20.0 20.0 20.0 20.0 20.0 20.0 20.0 20.0 20.0 20.0 20.0 20.0 20.0 20.0 20.0 20.0 20.0 20.0 20.0 20.0 20.0 20.0 20.0 20.0 20.0 20.0 20.0 20.0 20.0 20.0 23.6 25.9 27.5 30.0 32.9 37.4 38.2 33.8 29.8 26.8 25.3 24.3 23.5 22.9 22.4 22.0 21.7 21.4 21.1 20.9 20.7 20.6 20.4 20.3 20.1 20.1 24.1 24.9 25.7 26.8 28.6 30.3 30.4 28.5 26.6 25.5 24.5 23.7 23.0 22.5 22.1 21.8 21.5 21.2 21.0 20.8 20.6 20.5 20.3 20.2 20.1 20.1 23.6 24.2 24.8 25.7 26.9 27.7 27.7 26.7 25.4 24.6 23.9 23.2 22.7 22.2 21.9 21.6 21.3 21.1 20.9 20.7 20.6 20.4 20.3 20.2 20.1 20.0 23.1 23.5 24.0 24.7 25.6 25.9 26.0 25.5 24.6 24.0 23.4 22.9 22.4 22.0 21.7 21.4 21.2 21.0 20.8 20.7 20.5 20.4 20.3 20.2 20.1 20.0 22.6 23.0 23.4 23.9 24.4 24.7 24.9 24.6 24.0 23.5 23.0 22.6 22.2 21.9 21.6 21.4 21.1 20.9 20.8 20.6 20.5 20.4 20.3 20.2 20.1 20.0 22.3 22.6 23.0 23.4 23.7 23.9 24.1 23.8 23.4 23.0 22.6 22.3 22.0 21.7 21.4 21.2 21.0 20.9 20.7 20.6 20.5 20.3 20.2 20.2 20.1 20.0 22.1 22.5 22.9 23.1 23.2 23.3 23.4 23.2 22.9 22.6 22.3 22.1 21.8 21.5 21.2 21.1 20.9 20.8 20.7 20.5 20.4 20.3 20.2 20.1 20.1 20.0 22.1 22.7 23.0 23.0 22.8 22.7 22.7 22.7 22.5 22.2 22.0 21.9 21.6 21.4 21.1 20.9 20.8 20.7 20.6 20.5 20.4 20.3 20.2 20.1 20.1 20.0 22.2 22.9 23.2 22.9 22.5 22.2 22.2 22.2 22.1 21.9 21.8 21.6 21.5 21.3 21.1 20.9 20.7 20.6 20.5 20.4 20.3 20.3 20.2 20.1 20.1 20.0 21.9 22.2 22.5 22.6 22.2 21.9 21.8 21.9 21.8 21.6 21.5 21.4 21.3 21.2 21.0 20.8 20.7 20.5 20.5 20.4 20.3 20.2 20.2 20.1 20.1 20.0 21.5 21.3 21.6 22.1 21.8 21.6 21.6 21.6 21.5 21.4 21.3 21.2 21.2 21.1 20.9 20.8 20.6 20.5 20.4 20.3 20.3 20.2 20.2 20.1 20.0 20.0 21.2 21.2 21.4 21.8 21.4 21.3 21.3 21.3 21.3 21.2 21.1 21.1 21.0 21.0 20.9 20.8 20.6 20.5 20.4 20.3 20.3 20.2 20.1 20.1 20.0 20.0 21.1 21.1 21.2 21.4 21.2 21.0 21.0 21.1 21.1 21.0 21.0 20.9 20.9 20.9 20.8 20.7 20.6 20.5 20.4 20.3 20.2 20.2 20.1 20.1 20.0 20.0 21.0 21.0 20.9 21.1 20.9 20.8 20.8 20.9 20.9 20.9 20.8 20.8 20.7 20.7 20.7 20.7 20.6 20.5 20.4 20.3 20.2 20.2 20.1 20.1 20.0 20.0 20.9 20.8 20.7 20.8 20.7 20.7 20.7 20.7 20.8 20.7 20.7 20.6 20.6 20.6 20.6 20.6 20.5 20.5 20.4 20.3 20.2 20.2 20.1 20.1 20.0 20.0 20.6 20.6 20.6 20.7 20.6 20.6 20.6 20.6 20.6 20.6 20.6 20.5 20.5 20.5 20.5 20.5 20.5 20.4 20.4 20.3 20.2 20.2 20.1 20.1 20.0 20.0 20.4 20.4 20.5 20.5 20.5 20.5 20.4 20.5 20.5 20.5 20.5 20.4 20.4 20.4 20.4 20.5 20.4 20.4 20.4 20.3 20.2 20.1 20.1 20.1 20.0 20.0 20.2 20.3 20.3 20.4 20.4 20.4 20.4 20.4 20.4 20.4 20.4 20.4 20.3 20.3 20.4 20.4 20.4 20.4 20.3 20.3 20.2 20.1 20.1 20.1 20.0 20.0 20.2 20.2 20.3 20.3 20.3 20.3 20.3 20.3 20.3 20.3 20.3 20.3 20.3 20.3 20.3 20.3 20.3 20.3 20.3 20.3 20.2 20.1 20.1 20.1 20.0 20.0 20.2 20.2 20.2 20.2 20.3 20.2 20.2 20.2 20.3 20.3 20.2 20.2 20.2 20.2 20.2 20.2 20.2 20.2 20.3 20.3 20.2 20.2 20.1 20.1 20.0 20.0 20.1 20.1 20.2 20.2 20.2 20.2 20.2 20.2 20.2 20.2 20.2 20.2 20.2 20.1 20.1 20.2 20.2 20.2 20.2 20.2 20.2 20.2 20.1 20.1 20.0 20.0 20.1 20.1 20.1 20.1 20.1 20.1 20.1 20.1 20.2 20.2 20.2 20.1 20.1 20.1 20.1 20.1 20.1 20.1 20.1 20.1 20.2 20.2 20.1 20.1 20.0 20.0 20.1 20.1 20.1 20.1 20.1 20.1 20.1 20.1 20.1 20.1 20.1 20.1 20.1 20.1 20.1 20.1 20.1 20.1 20.1 20.1 20.1 20.1 20.1 20.1 20.0 20.0 20.0 20.1 20.1 20.1 20.1 20.1 20.1 20.1 20.1 20.1 20.1 20.1 20.1 20.1 20.0 20.0 20.0 20.0 20.0 20.0 20.1 20.1 20.1 20.1 20.0 20.0 20.0 20.0 20.0 20.0 20.0 20.0 20.0 20.0 20.0 20.0 20.0 20.0 20.0 20.0 20.0 20.0 20.0 20.0 20.0 20.0 20.0 20.0 20.0 20.0 20.0 20.0 20.0 20.0 20.0 20.0 20.0 20.0 20.0 20.0 20.0 20.0 20.0 20.0 20.0 20.0 20.0 20.0 20.0 20.0 20.0 20.0 20.0 20.0 20.0 20.0 20.0 20.0 23.8 27.2 31.9 36.6 37.2 41.2 46.0 41.3 33.0 27.5 25.5 24.6 23.7 23.1 22.6 22.2 21.8 21.5 21.3 21.1 20.8 20.6 20.5 20.3 20.1 20.1 24.3 25.1 26.1 27.9 29.7 30.9 31.1 29.2 27.0 25.7 24.7 23.9 23.2 22.7 22.3 21.9 21.6 21.4 21.1 20.9 20.7 20.5 20.4 20.3 20.1 20.1 23.7 24.3 25.0 25.9 27.2 28.0 28.0 26.9 25.7 24.8 24.1 23.4 22.9 22.4 22.1 21.8 21.5 21.2 21.0 20.9 20.7 20.5 20.3 20.2 20.1 20.1 23.2 23.7 24.3 25.1 26.0 26.3 26.3 25.7 24.8 24.1 23.6 23.1 22.6 22.3 21.9 21.6 21.4 21.2 21.0 20.8 20.6 20.5 20.3 20.2 20.1 20.0 22.8 23.2 23.8 24.5 24.8 24.9 25.0 24.7 24.1 23.6 23.1 22.7 22.4 22.1 21.8 21.5 21.3 21.1 20.9 20.7 20.6 20.4 20.3 20.2 20.1 20.0 22.6 23.0 23.6 24.0 24.0 24.0 24.1 23.9 23.5 23.1 22.7 22.4 22.1 21.8 21.6 21.4 21.2 21.0 20.8 20.7 20.5 20.4 20.3 20.2 20.1 20.0 22.6 23.1 23.5 23.6 23.5 23.4 23.5 23.3 22.9 22.7 22.4 22.1 21.8 21.6 21.4 21.2 21.1 20.9 20.8 20.7 20.5 20.4 20.3 20.2 20.1 20.0 22.8 23.5 23.8 23.5 23.0 22.9 22.9 22.7 22.5 22.3 22.1 21.9 21.7 21.4 21.2 21.1 20.9 20.8 20.7 20.6 20.5 20.4 20.3 20.2 20.1 20.0 23.0 23.9 24.2 23.5 22.6 22.4 22.3 22.3 22.1 21.9 21.8 21.7 21.5 21.3 21.1 21.0 20.8 20.7 20.6 20.5 20.4 20.3 20.2 20.1 20.1 20.0 22.4 22.9 23.3 23.0 22.3 22.0 21.9 22.0 21.8 21.7 21.6 21.5 21.3 21.2 21.1 20.9 20.8 20.7 20.6 20.5 20.4 20.3 20.2 20.1 20.1 20.0 21.5 21.6 21.9 22.3 21.9 21.6 21.6 21.7 21.6 21.5 21.3 21.3 21.2 21.1 21.0 20.8 20.7 20.6 20.5 20.4 20.3 20.3 20.2 20.1 20.1 20.0 21.4 21.4 21.6 21.8 21.5 21.4 21.4 21.4 21.4 21.3 21.2 21.1 21.0 21.0 20.9 20.8 20.7 20.6 20.5 20.4 20.3 20.2 20.2 20.1 20.1 20.0 21.2 21.2 21.2 21.4 21.2 21.1 21.1 21.2 21.2 21.1 21.0 20.9 20.9 20.9 20.8 20.7 20.6 20.5 20.5 20.4 20.3 20.2 20.2 20.1 20.0 20.0 21.1 21.0 20.9 21.1 21.0 20.9 20.9 21.0 21.0 20.9 20.9 20.8 20.8 20.8 20.7 20.7 20.6 20.5 20.4 20.3 20.3 20.2 20.1 20.1 20.0 20.0 20.9 20.7 20.7 20.9 20.9 20.8 20.8 20.8 20.8 20.8 20.7 20.7 20.7 20.7 20.6 20.6 20.5 20.5 20.4 20.3 20.2 20.2 20.1 20.1 20.0 20.0 20.7 20.7 20.7 20.7 20.7 20.6 20.6 20.7 20.7 20.7 20.6 20.6 20.6 20.6 20.6 20.5 20.5 20.4 20.4 20.3 20.2 20.2 20.1 20.1 20.0 20.0 20.5 20.5 20.5 20.6 20.6 20.5 20.5 20.6 20.6 20.6 20.5 20.5 20.5 20.5 20.5 20.5 20.4 20.4 20.4 20.3 20.2 20.2 20.1 20.1 20.0 20.0 20.3 20.3 20.4 20.4 20.5 20.4 20.4 20.5 20.5 20.5 20.4 20.4 20.4 20.4 20.4 20.4 20.4 20.4 20.3 20.3 20.2 20.2 20.1 20.1 20.0 20.0 20.2 20.2 20.3 20.4 20.4 20.3 20.3 20.4 20.4 20.4 20.4 20.3 20.3 20.3 20.3 20.3 20.3 20.3 20.3 20.3 20.2 20.2 20.1 20.1 20.0 20.0 20.2 20.2 20.3 20.3 20.3 20.3 20.3 20.3 20.3 20.3 20.3 20.3 20.2 20.2 20.2 20.2 20.3 20.3 20.3 20.2 20.2 20.2 20.1 20.1 20.0 20.0 20.1 20.2 20.2 20.2 20.2 20.2 20.2 20.2 20.3 20.3 20.2 20.2 20.2 20.2 20.2 20.2 20.2 20.2 20.2 20.2 20.2 20.2 20.1 20.1 20.0 20.0 20.1 20.1 20.2 20.2 20.2 20.1 20.1 20.2 20.2 20.2 20.2 20.2 20.1 20.1 20.1 20.1 20.1 20.1 20.1 20.1 20.2 20.2 20.1 20.1 20.0 20.0 20.1 20.1 20.1 20.1 20.1 20.1 20.1 20.1 20.1 20.1 20.1 20.1 20.1 20.1 20.1 20.1 20.1 20.1 20.1 20.1 20.1 20.1 20.1 20.1 20.0 20.0 20.0 20.1 20.1 20.1 20.1 20.1 20.1 20.1 20.1 20.1 20.1 20.1 20.1 20.1 20.1 20.1 20.1 20.1 20.1 20.1 20.1 20.1 20.1 20.1 20.0 20.0 20.0 20.0 20.0 20.0 20.0 20.0 20.0 20.0 20.0 20.0 20.0 20.0 20.0 20.0 20.0 20.0 20.0 20.0 20.0 20.0 20.0 20.0 20.0 20.0 20.0 20.0 20.0 20.0 20.0 20.0 20.0 20.0 20.0 20.0 20.0 20.0 20.0 20.0 20.0 20.0 20.0 20.0 20.0 20.0 20.0 20.0 20.0 20.0 20.0 20.0 20.0 20.0 24.0 27.6 33.3 42.2 42.8 42.0 49.8 45.3 32.8 27.7 25.7 24.7 23.9 23.3 22.8 22.4 22.0 21.7 21.4 21.1 20.9 20.7 20.5 20.3 20.2 20.1 24.3 25.2 26.5 29.3 30.7 30.8 31.1 29.2 27.0 25.7 24.8 24.1 23.4 22.9 22.5 22.1 21.8 21.5 21.2 21.0 20.8 20.6 20.4 20.3 20.1 20.1 23.7 24.4 25.2 26.0 27.2 28.0 27.9 26.9 25.8 24.9 24.2 23.6 23.1 22.6 22.3 22.0 21.7 21.4 21.2 21.0 20.7 20.6 20.4 20.3 20.1 20.1 23.4 23.9 24.5 25.2 25.9 26.4 26.4 25.7 24.8 24.2 23.6 23.2 22.8 22.4 22.1 21.8 21.6 21.3 21.1 20.9 20.7 20.6 20.4 20.2 20.1 20.1 23.2 23.6 24.2 24.7 24.9 25.0 25.0 24.7 24.1 23.6 23.2 22.8 22.5 22.2 22.0 21.7 21.5 21.2 21.0 20.9 20.7 20.5 20.4 20.2 20.1 20.1 23.0 23.5 24.0 24.3 24.2 24.0 24.1 23.9 23.5 23.1 22.8 22.4 22.2 22.0 21.8 21.6 21.4 21.2 21.0 20.8 20.6 20.5 20.3 20.2 20.1 20.0 22.9 23.4 24.0 24.1 23.7 23.4 23.5 23.3 23.0 22.7 22.4 22.2 21.9 21.7 21.6 21.4 21.3 21.1 20.9 20.8 20.6 20.5 20.3 20.2 20.1 20.0 22.9 23.6 24.2 24.0 23.3 23.0 22.9 22.8 22.6 22.4 22.1 21.9 21.7 21.6 21.4 21.2 21.1 21.0 20.8 20.7 20.6 20.4 20.3 20.2 20.1 20.0 22.9 23.9 24.5 23.8 22.8 22.5 22.5 22.4 22.2 22.1 21.9 21.7 21.6 21.4 21.3 21.1 21.0 20.9 20.8 20.6 20.5 20.4 20.3 20.2 20.1 20.0 22.3 23.2 23.7 23.0 22.3 22.1 22.1 22.1 22.0 21.8 21.7 21.5 21.4 21.3 21.2 21.0 20.9 20.8 20.7 20.6 20.5 20.4 20.3 20.2 20.1 20.0 21.6 22.2 22.5 22.3 21.9 21.8 21.8 21.8 21.7 21.6 21.5 21.4 21.3 21.2 21.1 21.0 20.9 20.8 20.7 20.6 20.5 20.4 20.3 20.2 20.1 20.0 21.5 21.9 22.1 21.9 21.6 21.5 21.5 21.5 21.5 21.4 21.3 21.2 21.1 21.1 21.0 20.9 20.8 20.7 20.6 20.5 20.4 20.3 20.2 20.1 20.1 20.0 21.4 21.6 21.6 21.5 21.3 21.3 21.3 21.3 21.3 21.2 21.1 21.1 21.0 20.9 20.9 20.8 20.7 20.6 20.6 20.5 20.4 20.3 20.2 20.1 20.1 20.0 21.2 21.2 21.2 21.2 21.1 21.1 21.1 21.1 21.1 21.1 21.0 20.9 20.9 20.8 20.8 20.7 20.7 20.6 20.5 20.4 20.4 20.3 20.2 20.1 20.1 20.0 20.9 20.9 20.9 20.9 20.9 20.9 20.9 20.9 21.0 20.9 20.9 20.8 20.8 20.7 20.7 20.7 20.6 20.5 20.5 20.4 20.3 20.2 20.2 20.1 20.1 20.0 20.7 20.7 20.8 20.8 20.8 20.8 20.8 20.8 20.8 20.8 20.8 20.7 20.7 20.6 20.6 20.6 20.6 20.5 20.4 20.4 20.3 20.2 20.2 20.1 20.0 20.0 20.5 20.5 20.6 20.6 20.7 20.6 20.6 20.7 20.7 20.7 20.6 20.6 20.6 20.6 20.5 20.5 20.5 20.5 20.4 20.4 20.3 20.2 20.2 20.1 20.0 20.0 20.3 20.4 20.4 20.5 20.5 20.5 20.5 20.5 20.6 20.6 20.6 20.5 20.5 20.5 20.5 20.5 20.4 20.4 20.4 20.3 20.3 20.2 20.2 20.1 20.0 20.0 20.3 20.3 20.4 20.4 20.4 20.4 20.4 20.4 20.5 20.5 20.5 20.4 20.4 20.4 20.4 20.4 20.4 20.4 20.3 20.3 20.3 20.2 20.1 20.1 20.0 20.0 20.2 20.3 20.3 20.4 20.4 20.3 20.3 20.3 20.4 20.4 20.4 20.3 20.3 20.3 20.3 20.3 20.3 20.3 20.3 20.3 20.2 20.2 20.1 20.1 20.0 20.0 20.2 20.2 20.3 20.3 20.3 20.2 20.2 20.3 20.3 20.3 20.3 20.3 20.2 20.2 20.2 20.2 20.2 20.2 20.2 20.2 20.2 20.2 20.1 20.1 20.0 20.0 20.1 20.2 20.2 20.2 20.2 20.2 20.2 20.2 20.2 20.2 20.2 20.2 20.2 20.2 20.2 20.2 20.2 20.2 20.2 20.2 20.2 20.2 20.1 20.1 20.0 20.0 20.1 20.1 20.1 20.2 20.1 20.1 20.1 20.1 20.2 20.2 20.2 20.1 20.1 20.1 20.1 20.1 20.1 20.1 20.1 20.1 20.1 20.1 20.1 20.1 20.0 20.0 20.1 20.1 20.1 20.1 20.1 20.1 20.1 20.1 20.1 20.1 20.1 20.1 20.1 20.1 20.1 20.1 20.1 20.1 20.1 20.1 20.1 20.1 20.1 20.1 20.0 20.0 20.0 20.0 20.0 20.0 20.0 20.0 20.0 20.0 20.0 20.1 20.1 20.0 20.0 20.0 20.0 20.0 20.0 20.0 20.0 20.0 20.0 20.0 20.0 20.0 20.0 20.0 20.0 20.0 20.0 20.0 20.0 20.0 20.0 20.0 20.0 20.0 20.0 20.0 20.0 20.0 20.0 20.0 20.0 20.0 20.0 20.0 20.0 20.0 20.0 20.0 20.0 20.0 25.0 28.1 31.8 41.7 43.8 40.0 44.8 40.3 30.4 27.6 25.7 24.7 24.0 23.4 22.9 22.5 22.1 21.7 21.4 21.2 20.9 20.7 20.5 20.3 20.2 20.1 25.2 26.2 27.3 29.3 30.1 30.0 30.2 28.6 26.7 25.6 24.8 24.1 23.6 23.1 22.7 22.3 21.9 21.6 21.3 21.0 20.8 20.6 20.4 20.3 20.1 20.1 23.9 24.6 25.4 26.2 26.9 27.5 27.5 26.7 25.7 24.8 24.1 23.7 23.2 22.8 22.5 22.1 21.8 21.5 21.2 21.0 20.8 20.6 20.4 20.3 20.1 20.1 23.7 24.1 24.7 25.4 25.9 26.1 26.1 25.6 24.9 24.2 23.6 23.3 22.9 22.6 22.3 22.0 21.7 21.4 21.2 21.0 20.8 20.6 20.4 20.3 20.1 20.1 23.5 23.9 24.5 24.9 25.0 25.0 25.0 24.7 24.2 23.6 23.2 22.9 22.6 22.4 22.1 21.9 21.6 21.4 21.1 20.9 20.7 20.6 20.4 20.2 20.1 20.1 23.2 23.7 24.3 24.5 24.3 24.2 24.2 24.0 23.6 23.2 22.8 22.6 22.3 22.1 21.9 21.7 21.5 21.3 21.1 20.9 20.7 20.5 20.4 20.2 20.1 20.1 22.9 23.6 24.3 24.4 23.8 23.5 23.6 23.5 23.1 22.8 22.5 22.3 22.1 21.9 21.7 21.6 21.4 21.2 21.0 20.8 20.7 20.5 20.4 20.2 20.1 20.1 22.6 23.5 24.4 24.1 23.3 23.0 23.1 22.9 22.7 22.5 22.3 22.1 21.9 21.7 21.6 21.4 21.3 21.1 21.0 20.8 20.6 20.5 20.4 20.2 20.1 20.1 22.2 23.2 24.0 23.5 22.8 22.6 22.6 22.5 22.4 22.2 22.0 21.9 21.7 21.6 21.4 21.3 21.2 21.0 20.9 20.8 20.6 20.5 20.3 20.2 20.1 20.0 21.8 22.5 22.9 22.6 22.3 22.2 22.2 22.2 22.1 22.0 21.8 21.7 21.6 21.4 21.3 21.2 21.1 21.0 20.9 20.7 20.6 20.4 20.3 20.2 20.1 20.0 21.5 21.8 22.0 22.0 21.9 21.9 21.9 21.9 21.8 21.8 21.7 21.5 21.4 21.3 21.2 21.1 21.0 20.9 20.8 20.7 20.5 20.4 20.3 20.2 20.1 20.0 21.3 21.6 21.6 21.6 21.6 21.6 21.7 21.7 21.6 21.6 21.5 21.4 21.3 21.2 21.1 21.0 20.9 20.8 20.7 20.6 20.5 20.4 20.3 20.2 20.1 20.0 21.2 21.3 21.3 21.3 21.4 21.4 21.4 21.4 21.4 21.4 21.3 21.2 21.2 21.1 21.0 20.9 20.9 20.8 20.7 20.6 20.5 20.4 20.3 20.2 20.1 20.0 21.1 21.0 21.0 21.1 21.2 21.2 21.2 21.2 21.2 21.2 21.2 21.1 21.0 21.0 20.9 20.9 20.8 20.7 20.6 20.5 20.4 20.3 20.2 20.2 20.1 20.0 20.8 20.8 20.9 21.0 21.0 21.0 21.0 21.1 21.1 21.1 21.0 21.0 20.9 20.9 20.8 20.8 20.7 20.7 20.6 20.5 20.4 20.3 20.2 20.1 20.1 20.0 20.6 20.7 20.8 20.9 20.9 20.9 20.9 20.9 21.0 20.9 20.9 20.8 20.8 20.8 20.7 20.7 20.7 20.6 20.5 20.5 20.4 20.3 20.2 20.1 20.1 20.0 20.5 20.6 20.7 20.7 20.8 20.7 20.7 20.8 20.8 20.8 20.8 20.7 20.7 20.7 20.7 20.6 20.6 20.6 20.5 20.4 20.4 20.3 20.2 20.1 20.1 20.0 20.4 20.5 20.6 20.6 20.6 20.6 20.6 20.7 20.7 20.7 20.7 20.6 20.6 20.6 20.6 20.5 20.5 20.5 20.5 20.4 20.3 20.3 20.2 20.1 20.1 20.0 20.4 20.4 20.5 20.5 20.5 20.5 20.5 20.5 20.6 20.6 20.6 20.5 20.5 20.5 20.5 20.5 20.5 20.4 20.4 20.4 20.3 20.3 20.2 20.1 20.0 20.0 20.3 20.3 20.4 20.4 20.4 20.4 20.4 20.4 20.5 20.5 20.5 20.4 20.4 20.4 20.4 20.4 20.4 20.4 20.4 20.3 20.3 20.2 20.2 20.1 20.0 20.0 20.2 20.3 20.3 20.4 20.3 20.3 20.3 20.3 20.4 20.4 20.4 20.3 20.3 20.3 20.3 20.3 20.3 20.3 20.3 20.3 20.3 20.2 20.2 20.1 20.0 20.0 20.2 20.2 20.3 20.3 20.2 20.2 20.2 20.2 20.3 20.3 20.3 20.2 20.2 20.2 20.2 20.2 20.2 20.2 20.2 20.2 20.2 20.2 20.2 20.1 20.1 20.0 20.1 20.2 20.2 20.2 20.2 20.1 20.1 20.2 20.2 20.2 20.2 20.2 20.2 20.1 20.1 20.1 20.1 20.2 20.2 20.2 20.2 20.2 20.2 20.1 20.1 20.0 20.1 20.1 20.1 20.1 20.1 20.1 20.1 20.1 20.1 20.1 20.1 20.1 20.1 20.1 20.1 20.1 20.1 20.1 20.1 20.1 20.1 20.1 20.1 20.1 20.1 20.0 20.0 20.1 20.1 20.1 20.1 20.0 20.0 20.0 20.1 20.1 20.1 20.1 20.1 20.0 20.0 20.0 20.0 20.0 20.0 20.0 20.0 20.0 20.1 20.1 20.0 20.0 20.0 20.0 20.0 20.0 20.0 20.0 20.0 20.0 20.0 20.0 20.0 20.0 20.0 20.0 20.0 20.0 20.0 20.0 20.0 20.0 20.0 20.0 20.0 20.0 20.0 20.0 26.6 30.4 32.9 40.0 41.4 35.9 35.2 33.3 29.7 27.9 25.9 24.8 24.2 23.7 23.1 22.6 22.2 21.8 21.4 21.2 20.9 20.7 20.5 20.3 20.2 20.1 26.4 27.9 28.4 28.8 28.9 29.0 29.1 28.0 26.5 25.5 24.8 24.3 23.8 23.4 22.9 22.4 22.1 21.7 21.4 21.0 20.8 20.6 20.4 20.3 20.1 20.1 24.2 24.9 25.7 26.3 26.8 27.2 27.3 26.6 25.6 24.8 24.2 23.8 23.5 23.1 22.7 22.3 22.0 21.7 21.3 21.0 20.8 20.6 20.4 20.3 20.1 20.1 23.9 24.4 24.9 25.5 25.9 26.1 26.0 25.5 24.9 24.3 23.8 23.4 23.1 22.8 22.4 22.1 21.9 21.6 21.3 21.1 20.8 20.6 20.4 20.3 20.1 20.1 23.7 24.1 24.6 25.0 25.0 25.1 25.0 24.7 24.3 23.7 23.3 23.0 22.8 22.5 22.3 22.0 21.7 21.5 21.3 21.0 20.8 20.6 20.4 20.3 20.1 20.1 23.4 23.9 24.5 24.7 24.4 24.3 24.3 24.0 23.7 23.3 23.0 22.7 22.5 22.3 22.1 21.9 21.7 21.4 21.2 20.9 20.7 20.6 20.4 20.2 20.1 20.1 23.1 23.8 24.5 24.4 23.8 23.6 23.7 23.5 23.2 22.9 22.7 22.5 22.3 22.1 21.9 21.8 21.6 21.4 21.1 20.9 20.7 20.5 20.4 20.2 20.1 20.1 22.7 23.6 24.3 24.0 23.2 23.1 23.1 23.0 22.8 22.7 22.4 22.2 22.1 21.9 21.8 21.6 21.5 21.3 21.1 20.9 20.7 20.5 20.4 20.2 20.1 20.1 22.3 23.2 23.7 23.1 22.7 22.7 22.7 22.6 22.5 22.4 22.2 22.1 21.9 21.8 21.6 21.5 21.4 21.2 21.1 20.9 20.7 20.5 20.4 20.2 20.1 20.1 21.9 22.4 22.6 22.3 22.3 22.3 22.3 22.3 22.2 22.2 22.1 21.9 21.8 21.6 21.5 21.4 21.3 21.1 21.0 20.8 20.7 20.5 20.3 20.2 20.1 20.1 21.5 21.8 21.9 21.9 22.0 22.0 22.0 22.0 22.0 22.0 21.9 21.7 21.6 21.5 21.4 21.3 21.2 21.1 21.0 20.8 20.7 20.5 20.3 20.2 20.1 20.0 21.3 21.5 21.5 21.6 21.7 21.8 21.8 21.8 21.8 21.8 21.7 21.6 21.5 21.4 21.3 21.2 21.1 21.0 20.9 20.8 20.6 20.5 20.3 20.2 20.1 20.0 21.1 21.2 21.3 21.4 21.5 21.6 21.6 21.6 21.6 21.6 21.5 21.4 21.3 21.3 21.2 21.1 21.0 20.9 20.8 20.7 20.6 20.4 20.3 20.2 20.1 20.0 21.0 21.0 21.1 21.2 21.3 21.3 21.4 21.4 21.4 21.4 21.3 21.3 21.2 21.2 21.1 21.0 21.0 20.9 20.8 20.7 20.5 20.4 20.3 20.2 20.1 20.0 20.8 20.9 21.0 21.1 21.1 21.2 21.2 21.2 21.3 21.2 21.2 21.1 21.1 21.0 21.0 20.9 20.9 20.8 20.7 20.6 20.5 20.4 20.3 20.2 20.1 20.0 20.7 20.8 20.9 21.0 21.0 21.0 21.0 21.1 21.1 21.1 21.0 21.0 21.0 20.9 20.9 20.9 20.8 20.7 20.7 20.6 20.5 20.4 20.3 20.2 20.1 20.0 20.6 20.7 20.8 20.9 20.9 20.8 20.8 20.9 21.0 21.0 20.9 20.9 20.8 20.8 20.8 20.8 20.7 20.7 20.6 20.5 20.4 20.3 20.2 20.2 20.1 20.0 20.5 20.6 20.7 20.7 20.7 20.7 20.7 20.7 20.8 20.8 20.8 20.7 20.7 20.7 20.7 20.7 20.6 20.6 20.6 20.5 20.4 20.3 20.2 20.1 20.1 20.0 20.5 20.5 20.6 20.6 20.6 20.5 20.5 20.6 20.7 20.7 20.7 20.6 20.6 20.6 20.6 20.6 20.6 20.5 20.5 20.5 20.4 20.3 20.2 20.1 20.1 20.0 20.4 20.4 20.5 20.5 20.5 20.4 20.4 20.5 20.6 20.6 20.6 20.5 20.5 20.5 20.5 20.5 20.5 20.5 20.5 20.4 20.4 20.3 20.2 20.1 20.1 20.0 20.3 20.3 20.4 20.4 20.4 20.3 20.3 20.4 20.4 20.5 20.4 20.4 20.4 20.4 20.4 20.4 20.4 20.4 20.4 20.4 20.3 20.3 20.2 20.1 20.1 20.0 20.2 20.3 20.3 20.3 20.3 20.2 20.2 20.3 20.3 20.4 20.3 20.3 20.3 20.3 20.2 20.3 20.3 20.3 20.3 20.3 20.3 20.3 20.2 20.1 20.1 20.0 20.2 20.2 20.2 20.2 20.2 20.2 20.2 20.2 20.2 20.2 20.2 20.2 20.2 20.2 20.2 20.2 20.2 20.2 20.2 20.2 20.2 20.2 20.2 20.1 20.1 20.0 20.1 20.1 20.1 20.1 20.1 20.1 20.1 20.1 20.1 20.2 20.2 20.1 20.1 20.1 20.1 20.1 20.1 20.1 20.1 20.1 20.1 20.1 20.1 20.1 20.1 20.0 20.1 20.1 20.1 20.1 20.1 20.0 20.0 20.1 20.1 20.1 20.1 20.1 20.1 20.1 20.0 20.0 20.1 20.1 20.1 20.1 20.1 20.1 20.1 20.1 20.1 20.0 20.0 20.0 20.0 20.0 20.0 20.0 20.0 20.0 20.0 20.0 20.0 20.0 20.0 20.0 20.0 20.0 20.0 20.0 20.0 20.0 20.0 20.0 20.0 20.0 20.0 20.0 28.9 34.1 35.1 38.5 37.5 32.2 31.1 32.5 32.5 29.2 26.1 25.0 24.4 23.9 23.3 22.8 22.4 22.0 21.6 21.2 20.9 20.7 20.5 20.3 20.1 20.1 27.1 29.1 29.8 28.9 28.1 28.1 28.4 28.2 26.9 25.6 25.0 24.5 24.1 23.6 23.1 22.7 22.3 22.0 21.5 21.1 20.8 20.6 20.4 20.3 20.1 20.1 24.5 25.4 26.0 26.4 26.7 27.1 27.3 26.7 25.7 24.9 24.4 24.0 23.6 23.2 22.8 22.5 22.2 21.9 21.5 21.1 20.8 20.6 20.4 20.3 20.1 20.1 24.1 24.7 25.1 25.6 25.9 26.1 26.1 25.6 25.0 24.4 23.9 23.6 23.2 22.9 22.6 22.3 22.1 21.9 21.6 21.2 20.8 20.6 20.4 20.3 20.1 20.1 23.9 24.4 24.8 25.0 25.1 25.1 25.0 24.7 24.3 23.9 23.5 23.2 22.9 22.7 22.4 22.2 22.0 21.7 21.5 21.2 20.9 20.6 20.4 20.3 20.1 20.1 23.7 24.2 24.7 24.7 24.5 24.4 24.2 24.1 23.8 23.5 23.2 22.9 22.7 22.5 22.3 22.1 21.9 21.6 21.4 21.1 20.9 20.6 20.4 20.3 20.1 20.1 23.3 24.0 24.6 24.4 23.8 23.7 23.7 23.6 23.5 23.3 23.0 22.7 22.5 22.3 22.2 22.0 21.8 21.6 21.3 21.1 20.8 20.6 20.4 20.3 20.1 20.1 22.9 23.8 24.3 23.9 23.3 23.2 23.2 23.2 23.1 23.0 22.7 22.5 22.3 22.2 22.0 21.8 21.7 21.5 21.3 21.1 20.8 20.6 20.4 20.2 20.1 20.1 22.5 23.4 23.6 23.1 22.9 22.8 22.8 22.8 22.8 22.7 22.5 22.3 22.1 22.0 21.9 21.7 21.6 21.4 21.2 21.0 20.8 20.6 20.4 20.2 20.1 20.1 22.1 22.6 22.7 22.5 22.4 22.5 22.5 22.5 22.5 22.4 22.2 22.1 22.0 21.9 21.8 21.6 21.5 21.3 21.2 21.0 20.8 20.6 20.4 20.2 20.1 20.1 21.7 21.9 22.0 22.0 22.1 22.2 22.2 22.2 22.2 22.1 22.0 21.9 21.8 21.7 21.6 21.5 21.4 21.3 21.1 21.0 20.8 20.6 20.4 20.2 20.1 20.1 21.5 21.6 21.7 21.8 21.8 21.9 22.0 22.0 22.0 21.9 21.8 21.7 21.6 21.6 21.5 21.4 21.3 21.2 21.1 20.9 20.7 20.6 20.4 20.2 20.1 20.0 21.3 21.4 21.5 21.5 21.6 21.7 21.7 21.8 21.8 21.7 21.7 21.6 21.5 21.5 21.4 21.3 21.2 21.1 21.0 20.8 20.7 20.5 20.4 20.2 20.1 20.0 21.1 21.2 21.3 21.4 21.4 21.5 21.5 21.5 21.6 21.5 21.5 21.4 21.4 21.3 21.3 21.2 21.1 21.0 20.9 20.8 20.6 20.5 20.3 20.2 20.1 20.0 21.0 21.0 21.1 21.2 21.3 21.3 21.3 21.4 21.4 21.4 21.3 21.3 21.2 21.2 21.2 21.1 21.0 21.0 20.9 20.7 20.6 20.5 20.3 20.2 20.1 20.0 20.8 20.9 21.0 21.1 21.