<?xml version="1.0"?>
<VTKFile type="RectilinearGrid" version="1.0" byte_order="LittleEndian" header_type="UInt64">
<RectilinearGrid WholeExtent="25 50 0 25 0 15">
<Piece Extent="25 50 0 25 0 15">
<Coordinates>
<DataArray type="Float64" Name="Array X-Axis" format="ascii" RangeMin="15.0" RangeMax="30.0">
15.0 15.6 16.2 16.8 17.4 18.0 18.6 19.2 19.8 20.4 21.0 21.6 22.2 22.8 23.4 24.0 24.6 25.2 25.8 26.4 27.0 27.6 28.2 28.8 29.4 30.0 
</DataArray>
<DataArray type="Float64" Name="Array Y-Axis" format="ascii" RangeMin="0.0" RangeMax="15.0">
0.0 0.6 1.2 1.8 2.4 3.0 3.6 4.2 4.8 5.4 6.0 6.6 7.2 7.8 8.4 9.0 9.6 10.2 10.8 11.4 12.0 12.6 13.2 13.8 14.4 15.0 
</DataArray>
<DataArray type="Float64" Name="Array Z-Axis" format="ascii" RangeMin="0.0" RangeMax="9.0">
0.0 0.6 1.2 1.8 2.4 3.0 3.6 4.2 4.8 5.4 6.0 6.6 7.2 7.8 8.4 9.0 
</DataArray>
</Coordinates>
<PointData>
<DataArray Name="TEMPERATURE" NumberOfComponents="1" type="Float64" format="ascii">
20.0 20.0 20.0 20.0 20.0 20.0 20.0 20.0 20.0 20.0 20.0 20.0 20.0 20.0 20.0 20.0 20.0 20.0 20.0 20.0 20.0 20.0 20.0 20.0 20.1 20.1 20.1 20.1 20.1 20.1 20.1 20.1 20.1 20.1 20.1 20.1 20.1 20.1 20.1 20.1 20.1 20.1 20.1 20.1 20.1 20.1 20.1 20.1 20.1 20.1 20.1 20.1 20.1 20.1 20.1 20.2 20.2 20.2 20.1 20.2 20.2 20.2 20.2 20.2 20.1 20.1 20.1 20.1 20.1 20.1 20.1 20.1 20.1 20.2 20.2 20.2 20.1 20.1 20.2 20.2 20.2 20.3 20.3 20.2 20.2 20.3 20.3 20.3 20.3 20.2 20.2 20.2 20.2 20.2 20.2 20.2 20.2 20.2 20.3 20.3 20.3 20.2 20.1 20.0 20.3 20.3 20.3 20.4 20.4 20.3 20.4 20.4 20.4 20.4 20.4 20.3 20.3 20.3 20.3 20.3 20.3 20.3 20.3 20.4 20.4 20.4 20.3 20.2 20.1 20.0 20.4 20.4 20.4 20.5 20.5 20.5 20.5 20.5 20.5 20.5 20.5 20.4 20.4 20.4 20.4 20.4 20.4 20.5 20.5 20.5 20.5 20.4 20.3 20.2 20.1 20.0 20.4 20.5 20.5 20.6 20.6 20.6 20.6 20.6 20.7 20.6 20.6 20.5 20.5 20.5 20.5 20.6 20.6 20.6 20.6 20.6 20.5 20.4 20.3 20.1 20.1 20.0 20.5 20.6 20.6 20.7 20.7 20.7 20.7 20.8 20.8 20.8 20.7 20.7 20.6 20.7 20.7 20.7 20.7 20.7 20.7 20.6 20.5 20.4 20.2 20.1 20.1 20.0 20.7 20.7 20.8 20.8 20.9 20.9 20.9 20.9 20.9 20.9 20.9 20.8 20.8 20.9 20.9 20.9 20.9 20.9 20.8 20.6 20.5 20.3 20.2 20.1 20.1 20.0 20.8 20.9 20.9 21.0 21.0 21.0 21.1 21.1 21.1 21.1 21.1 21.0 21.0 21.1 21.1 21.1 21.0 20.9 20.8 20.6 20.5 20.3 20.2 20.2 20.1 20.0 21.0 21.0 21.1 21.2 21.2 21.2 21.3 21.3 21.4 21.4 21.3 21.3 21.3 21.3 21.3 21.2 21.1 21.0 20.8 20.6 20.5 20.3 20.3 20.2 20.1 20.0 21.2 21.3 21.3 21.4 21.5 21.6 21.6 21.6 21.7 21.7 21.6 21.6 21.5 21.5 21.4 21.3 21.2 21.0 20.8 20.6 20.5 20.4 20.3 20.2 20.1 20.0 21.4 21.5 21.6 21.7 21.8 21.9 22.0 22.0 22.1 22.0 21.9 21.8 21.8 21.7 21.5 21.4 21.2 21.0 20.8 20.6 20.5 20.4 20.3 20.2 20.1 20.0 21.7 21.8 21.9 22.1 22.2 22.3 22.4 22.5 22.5 22.3 22.2 22.1 22.0 21.8 21.7 21.5 21.2 21.0 20.8 20.6 20.5 20.4 20.3 20.2 20.1 20.0 21.9 22.1 22.3 22.5 22.7 22.9 23.0 23.0 23.0 22.8 22.5 22.4 22.2 22.0 21.8 21.5 21.2 21.0 20.8 20.6 20.5 20.4 20.3 20.2 20.1 20.0 22.2 22.4 22.7 23.0 23.3 23.6 23.8 23.7 23.6 23.3 22.9 22.7 22.4 22.2 21.8 21.5 21.2 21.0 20.8 20.7 20.5 20.4 20.3 20.2 20.1 20.1 22.5 22.8 23.1 23.5 24.0 24.5 24.6 24.5 24.2 23.7 23.4 23.0 22.6 22.2 21.9 21.5 21.2 21.0 20.8 20.7 20.6 20.4 20.3 20.2 20.1 20.1 22.9 23.2 23.6 24.1 24.8 25.4 25.7 25.7 25.2 24.4 23.8 23.3 22.8 22.3 21.9 21.5 21.3 21.1 20.9 20.8 20.6 20.5 20.4 20.2 20.1 20.1 23.3 23.7 24.2 25.0 25.8 26.8 28.0 28.1 26.6 25.1 24.3 23.6 23.0 22.4 22.0 21.7 21.4 21.2 21.1 20.9 20.7 20.5 20.4 20.3 20.1 20.1 23.8 24.3 25.0 27.2 29.3 31.7 35.3 34.0 28.9 26.0 24.8 24.0 23.2 22.6 22.2 21.9 21.6 21.4 21.2 21.0 20.8 20.6 20.4 20.3 20.1 20.1 24.8 25.7 27.1 36.6 41.0 35.9 40.9 36.8 30.8 26.9 25.5 24.6 23.7 22.9 22.4 22.1 21.8 21.5 21.2 21.0 20.8 20.6 20.4 20.3 20.1 20.1 25.6 26.9 29.0 39.9 49.3 20.0 20.0 34.6 31.9 27.8 26.0 25.0 23.9 23.1 22.6 22.1 21.8 21.5 21.2 21.0 20.8 20.6 20.4 20.3 20.1 20.1 25.4 26.8 28.8 33.4 36.6 20.0 20.0 35.0 32.0 27.8 25.8 24.7 23.8 23.1 22.6 22.1 21.7 21.4 21.2 20.9 20.7 20.6 20.4 20.3 20.1 20.1 24.9 25.9 27.8 30.2 33.1 38.9 38.5 33.3 29.9 26.7 25.1 24.2 23.5 22.9 22.4 22.0 21.7 21.4 21.2 20.9 20.7 20.6 20.4 20.3 20.1 20.1 24.2 24.9 26.1 27.6 30.5 34.2 33.8 30.3 27.3 25.5 24.5 23.7 23.1 22.6 22.2 21.9 21.6 21.4 21.2 21.0 20.7 20.6 20.4 20.3 20.1 20.1 22.7 24.0 24.7 25.6 27.0 28.1 28.1 27.2 25.8 24.7 24.0 23.3 22.8 22.3 21.9 21.7 21.4 21.2 21.1 20.9 20.7 20.6 20.4 20.3 20.1 20.1 20.0 20.0 20.0 20.0 20.0 20.0 20.0 20.0 20.0 20.0 20.0 20.0 20.0 20.0 20.0 20.0 20.0 20.0 20.0 20.0 20.0 20.0 20.0 20.0 20.1 20.1 20.1 20.1 20.1 20.1 20.1 20.1 20.1 20.1 20.1 20.1 20.1 20.1 20.1 20.1 20.1 20.1 20.1 20.1 20.1 20.1 20.1 20.1 20.1 20.1 20.1 20.1 20.1 20.1 20.1 20.1 20.1 20.1 20.1 20.2 20.2 20.2 20.2 20.1 20.1 20.1 20.1 20.1 20.1 20.1 20.1 20.1 20.1 20.2 20.2 20.2 20.1 20.1 20.2 20.2 20.2 20.2 20.2 20.2 20.2 20.2 20.3 20.3 20.3 20.2 20.2 20.2 20.2 20.2 20.2 20.2 20.2 20.2 20.3 20.3 20.3 20.2 20.1 20.0 20.3 20.3 20.3 20.3 20.3 20.3 20.3 20.4 20.4 20.4 20.4 20.3 20.3 20.3 20.3 20.3 20.3 20.3 20.3 20.4 20.4 20.4 20.3 20.2 20.1 20.0 20.3 20.4 20.4 20.4 20.5 20.4 20.4 20.5 20.5 20.5 20.4 20.4 20.4 20.4 20.4 20.4 20.4 20.4 20.5 20.5 20.5 20.4 20.3 20.1 20.1 20.0 20.4 20.5 20.5 20.5 20.6 20.6 20.6 20.6 20.6 20.6 20.6 20.5 20.5 20.5 20.5 20.5 20.6 20.6 20.6 20.6 20.5 20.4 20.2 20.1 20.1 20.0 20.5 20.6 20.6 20.7 20.7 20.7 20.7 20.7 20.8 20.7 20.7 20.6 20.6 20.7 20.7 20.7 20.7 20.7 20.7 20.6 20.5 20.3 20.2 20.1 20.1 20.0 20.6 20.7 20.7 20.8 20.8 20.9 20.9 20.9 20.9 20.9 20.9 20.8 20.8 20.9 20.9 20.9 20.9 20.8 20.7 20.6 20.5 20.3 20.2 20.1 20.1 20.0 20.8 20.8 20.9 21.0 21.0 21.0 21.1 21.1 21.1 21.1 21.1 21.0 21.1 21.1 21.1 21.0 21.0 20.9 20.8 20.6 20.5 20.3 20.2 20.1 20.1 20.0 21.0 21.0 21.1 21.2 21.2 21.3 21.3 21.3 21.4 21.4 21.3 21.3 21.3 21.3 21.2 21.2 21.1 20.9 20.8 20.6 20.4 20.3 20.2 20.2 20.1 20.0 21.2 21.3 21.4 21.4 21.5 21.6 21.6 21.7 21.7 21.7 21.6 21.6 21.5 21.5 21.4 21.3 21.1 21.0 20.8 20.6 20.4 20.3 20.2 20.2 20.1 20.0 21.4 21.5 21.6 21.8 21.9 22.0 22.1 22.1 22.1 22.0 21.9 21.8 21.8 21.7 21.5 21.4 21.2 21.0 20.8 20.6 20.4 20.3 20.3 20.2 20.1 20.0 21.7 21.8 22.0 22.1 22.3 22.4 22.6 22.6 22.6 22.4 22.3 22.1 22.0 21.8 21.7 21.5 21.2 21.0 20.8 20.6 20.5 20.4 20.3 20.2 20.1 20.0 22.0 22.1 22.4 22.6 22.8 23.1 23.2 23.2 23.1 22.8 22.6 22.4 22.2 22.0 21.8 21.5 21.2 21.0 20.8 20.6 20.5 20.4 20.3 20.2 20.1 20.0 22.3 22.5 22.8 23.1 23.4 23.8 24.0 23.9 23.7 23.3 23.0 22.8 22.5 22.2 21.9 21.5 21.2 21.0 20.8 20.6 20.5 20.4 20.3 20.2 20.1 20.0 22.6 22.9 23.3 23.7 24.3 24.8 24.9 24.8 24.3 23.9 23.5 23.1 22.7 22.3 21.9 21.6 21.3 21.0 20.8 20.7 20.6 20.4 20.3 20.2 20.1 20.1 23.0 23.4 23.9 24.5 25.3 26.0 26.3 26.1 25.4 24.5 23.9 23.4 22.9 22.4 22.0 21.6 21.3 21.1 20.9 20.8 20.6 20.5 20.3 20.2 20.1 20.1 23.4 24.0 24.6 26.6 27.9 28.7 33.4 32.9 27.3 25.3 24.5 23.8 23.1 22.6 22.1 21.7 21.5 21.2 21.0 20.9 20.7 20.5 20.4 20.3 20.1 20.1 23.9 24.7 26.3 37.5 42.8 42.2 78.3 75.5 33.8 26.3 25.1 24.2 23.4 22.8 22.3 22.0 21.7 21.4 21.1 20.9 20.8 20.6 20.4 20.3 20.1 20.1 24.9 26.0 35.3 72.8 121.5 165.9 215.0 134.8 40.1 27.6 25.8 24.8 23.9 23.1 22.5 22.1 21.8 21.5 21.2 21.0 20.8 20.6 20.4 20.3 20.1 20.1 25.9 27.4 37.7 71.1 154.2 363.0 393.3 143.5 39.6 28.8 26.5 25.3 24.1 23.3 22.7 22.2 21.8 21.5 21.2 20.9 20.8 20.6 20.4 20.3 20.1 20.1 25.9 27.4 31.4 41.1 102.0 269.3 292.6 115.5 37.8 29.1 26.4 25.0 24.0 23.3 22.7 22.2 21.8 21.5 21.2 20.9 20.7 20.5 20.4 20.3 20.1 20.1 25.2 26.3 28.8 34.8 66.1 96.9 99.6 70.1 35.9 28.2 25.6 24.4 23.7 23.0 22.5 22.1 21.7 21.4 21.2 21.0 20.7 20.6 20.4 20.3 20.1 20.1 24.2 25.0 26.3 28.7 32.9 37.8 38.5 35.2 30.5 26.5 24.9 23.9 23.2 22.7 22.3 21.9 21.6 21.3 21.2 20.9 20.7 20.6 20.4 20.3 20.1 20.1 22.8 24.2 25.0 26.0 27.6 29.6 30.0 28.1 26.1 25.1 24.3 23.5 22.9 22.4 22.0 21.7 21.4 21.2 21.0 20.8 20.7 20.5 20.4 20.3 20.1 20.1 20.0 20.0 20.0 20.0 20.0 20.0 20.0 20.0 20.0 20.0 20.0 20.0 20.0 20.0 20.0 20.0 20.0 20.0 20.0 20.0 20.0 20.0 20.0 20.0 20.1 20.1 20.0 20.1 20.1 20.1 20.1 20.1 20.1 20.1 20.1 20.1 20.1 20.1 20.1 20.1 20.1 20.0 20.0 20.0 20.0 20.0 20.0 20.1 20.1 20.1 20.1 20.1 20.1 20.1 20.1 20.1 20.1 20.1 20.1 20.1 20.1 20.2 20.1 20.1 20.1 20.1 20.1 20.1 20.1 20.1 20.1 20.1 20.1 20.1 20.2 20.2 20.1 20.1 20.2 20.2 20.2 20.2 20.2 20.2 20.2 20.2 20.2 20.2 20.2 20.2 20.2 20.2 20.2 20.2 20.2 20.2 20.2 20.2 20.2 20.3 20.2 20.2 20.1 20.0 20.2 20.3 20.3 20.3 20.3 20.3 20.3 20.3 20.4 20.3 20.3 20.3 20.3 20.2 20.2 20.3 20.3 20.3 20.3 20.3 20.3 20.3 20.3 20.2 20.1 20.0 20.3 20.3 20.4 20.4 20.4 20.4 20.4 20.4 20.5 20.4 20.4 20.4 20.3 20.3 20.4 20.4 20.4 20.4 20.4 20.4 20.4 20.3 20.2 20.1 20.1 20.0 20.4 20.4 20.5 20.5 20.5 20.5 20.5 20.6 20.6 20.6 20.5 20.5 20.5 20.5 20.5 20.5 20.5 20.5 20.5 20.5 20.4 20.3 20.2 20.1 20.0 20.0 20.5 20.5 20.6 20.6 20.7 20.7 20.7 20.7 20.7 20.7 20.7 20.6 20.6 20.6 20.7 20.7 20.7 20.6 20.6 20.5 20.4 20.3 20.2 20.1 20.1 20.0 20.6 20.7 20.7 20.8 20.8 20.9 20.9 20.9 20.9 20.9 20.9 20.8 20.8 20.8 20.8 20.8 20.8 20.7 20.7 20.6 20.4 20.3 20.2 20.1 20.1 20.0 20.8 20.8 20.9 21.0 21.0 21.1 21.1 21.2 21.2 21.1 21.1 21.0 21.0 21.0 21.0 20.9 20.9 20.8 20.7 20.6 20.4 20.3 20.2 20.1 20.1 20.0 21.0 21.0 21.1 21.2 21.3 21.4 21.4 21.4 21.5 21.4 21.3 21.3 21.3 21.2 21.1 21.1 21.0 20.9 20.7 20.6 20.4 20.3 20.2 20.1 20.1 20.0 21.2 21.3 21.4 21.5 21.7 21.8 21.8 21.8 21.8 21.7 21.6 21.6 21.5 21.4 21.3 21.2 21.1 20.9 20.7 20.6 20.4 20.3 20.2 20.1 20.1 20.0 21.4 21.6 21.7 21.9 22.0 22.2 22.3 22.3 22.2 22.1 22.0 21.8 21.7 21.6 21.5 21.3 21.1 21.0 20.8 20.6 20.4 20.3 20.2 20.1 20.1 20.0 21.7 21.9 22.1 22.3 22.5 22.7 22.9 22.9 22.7 22.5 22.3 22.2 22.0 21.8 21.6 21.4 21.2 21.0 20.8 20.6 20.4 20.3 20.2 20.2 20.1 20.0 22.0 22.2 22.5 22.8 23.2 23.5 23.6 23.5 23.3 23.0 22.7 22.5 22.3 22.0 21.8 21.5 21.3 21.0 20.8 20.6 20.5 20.3 20.3 20.2 20.1 20.0 22.3 22.6 23.0 23.4 23.8 24.3 24.6 24.4 23.9 23.5 23.2 22.9 22.6 22.2 21.9 21.6 21.3 21.0 20.8 20.6 20.5 20.4 20.3 20.2 20.1 20.0 22.7 23.2 23.6 24.1 24.8 25.5 25.9 25.4 24.7 24.1 23.7 23.3 22.9 22.4 22.0 21.7 21.3 21.0 20.8 20.6 20.5 20.4 20.3 20.2 20.1 20.0 23.2 23.7 24.5 25.8 26.9 27.9 28.2 27.1 25.8 24.9 24.3 23.7 23.1 22.6 22.1 21.7 21.4 21.1 20.9 20.7 20.6 20.4 20.3 20.2 20.1 20.1 23.8 24.8 26.1 31.6 36.1 38.1 43.4 38.7 28.8 25.8 24.9 24.2 23.4 22.8 22.3 21.8 21.5 21.2 21.0 20.8 20.7 20.5 20.4 20.2 20.1 20.1 24.4 26.0 30.9 58.1 72.6 68.2 116.9 108.9 42.4 27.2 25.7 24.7 23.8 23.1 22.5 22.0 21.7 21.4 21.1 20.9 20.7 20.6 20.4 20.3 20.1 20.1 25.4 27.4 43.2 115.9 192.2 227.3 274.8 193.5 56.3 29.1 26.7 25.4 24.4 23.5 22.8 22.3 21.8 21.5 21.2 21.0 20.8 20.6 20.4 20.3 20.1 20.1 26.5 28.7 44.6 109.7 232.6 367.4 384.7 208.5 55.4 30.9 27.7 26.0 24.7 23.8 23.0 22.4 21.9 21.5 21.2 21.0 20.7 20.5 20.4 20.2 20.1 20.1 26.7 28.5 35.9 72.9 189.7 308.1 317.9 188.9 59.7 33.1 27.8 25.9 24.6 23.7 23.0 22.4 21.9 21.5 21.2 21.0 20.7 20.5 20.4 20.2 20.1 20.1 25.6 26.9 31.5 59.4 131.6 162.4 157.9 129.4 68.0 38.0 27.0 25.2 24.1 23.3 22.8 22.2 21.8 21.4 21.2 21.0 20.7 20.5 20.4 20.2 20.1 20.1 24.6 25.5 27.2 34.3 49.0 60.1 60.1 57.0 48.7 34.0 25.8 24.5 23.6 23.0 22.4 22.0 21.6 21.3 21.1 20.9 20.7 20.5 20.4 20.2 20.1 20.1 23.1 24.6 25.6 27.1 29.8 35.5 36.4 31.0 27.5 25.9 24.8 23.9 23.3 22.7 22.2 21.8 21.4 21.2 21.0 20.8 20.6 20.5 20.4 20.2 20.1 20.1 20.0 20.0 20.0 20.0 20.0 20.0 20.0 20.0 20.0 20.0 20.0 20.0 20.0 20.0 20.0 20.0 20.0 20.0 20.0 20.0 20.0 20.0 20.0 20.0 20.1 20.1 20.0 20.1 20.1 20.1 20.1 20.1 20.1 20.1 20.1 20.1 20.1 20.1 20.1 20.0 20.0 20.0 20.0 20.0 20.0 20.0 20.0 20.1 20.1 20.1 20.1 20.1 20.1 20.1 20.1 20.1 20.1 20.1 20.1 20.1 20.1 20.2 20.1 20.1 20.1 20.1 20.1 20.1 20.1 20.1 20.1 20.1 20.1 20.1 20.2 20.1 20.1 20.0 20.2 20.2 20.2 20.2 20.2 20.2 20.2 20.2 20.2 20.2 20.2 20.2 20.2 20.2 20.2 20.2 20.2 20.2 20.2 20.2 20.2 20.2 20.2 20.2 20.1 20.0 20.2 20.3 20.3 20.3 20.3 20.3 20.3 20.3 20.4 20.3 20.3 20.3 20.3 20.3 20.3 20.3 20.3 20.3 20.3 20.3 20.3 20.3 20.2 20.1 20.1 20.0 20.3 20.3 20.4 20.4 20.4 20.4 20.4 20.5 20.5 20.5 20.4 20.4 20.4 20.4 20.4 20.4 20.4 20.4 20.4 20.4 20.4 20.3 20.2 20.1 20.0 20.0 20.4 20.4 20.5 20.5 20.6 20.6 20.6 20.6 20.6 20.6 20.5 20.5 20.5 20.5 20.5 20.5 20.5 20.5 20.5 20.4 20.4 20.3 20.2 20.1 20.0 20.0 20.5 20.5 20.6 20.7 20.7 20.7 20.7 20.8 20.8 20.7 20.7 20.7 20.6 20.7 20.7 20.6 20.6 20.6 20.5 20.5 20.4 20.3 20.2 20.1 20.0 20.0 20.7 20.7 20.8 20.8 20.9 20.9 20.9 21.0 21.0 20.9 20.9 20.9 20.8 20.8 20.8 20.8 20.7 20.7 20.6 20.5 20.4 20.3 20.2 20.1 20.1 20.0 20.8 20.9 21.0 21.1 21.1 21.2 21.2 21.3 21.2 21.2 21.1 21.1 21.0 21.0 21.0 20.9 20.8 20.7 20.6 20.5 20.4 20.3 20.2 20.1 20.1 20.0 21.0 21.1 21.2 21.3 21.4 21.5 21.5 21.6 21.6 21.5 21.4 21.3 21.2 21.2 21.1 21.0 20.9 20.8 20.7 20.6 20.4 20.3 20.2 20.1 20.1 20.0 21.2 21.3 21.5 21.6 21.8 21.9 22.0 22.0 21.9 21.8 21.7 21.6 21.5 21.4 21.3 21.1 21.0 20.9 20.7 20.6 20.4 20.3 20.2 20.1 20.1 20.0 21.5 21.6 21.8 21.9 22.1 22.3 22.5 22.5 22.4 22.2 22.0 21.8 21.7 21.6 21.4 21.3 21.1 20.9 20.8 20.6 20.5 20.3 20.2 20.1 20.1 20.0 21.7 21.9 22.1 22.4 22.7 22.9 23.0 23.1 22.9 22.6 22.4 22.2 22.0 21.8 21.6 21.4 21.2 21.0 20.8 20.6 20.5 20.3 20.2 20.2 20.1 20.0 22.0 22.3 22.6 23.0 23.3 23.6 23.9 23.8 23.5 23.1 22.8 22.5 22.3 22.0 21.8 21.5 21.3 21.1 20.8 20.6 20.5 20.4 20.3 20.2 20.1 20.0 22.4 22.8 23.2 23.6 24.1 24.5 24.9 24.8 24.1 23.7 23.3 22.9 22.6 22.3 22.0 21.7 21.4 21.1 20.9 20.7 20.5 20.4 20.3 20.2 20.1 20.0 22.9 23.4 24.1 24.6 25.2 26.7 27.2 26.1 25.0 24.4 23.9 23.4 23.0 22.6 22.1 21.8 21.4 21.1 20.9 20.7 20.5 20.4 20.3 20.2 20.1 20.0 23.4 24.2 26.4 27.9 28.1 30.1 30.9 28.5 26.2 25.3 24.6 23.9 23.3 22.8 22.3 21.9 21.5 21.2 20.9 20.7 20.6 20.4 20.3 20.2 20.1 20.0 24.2 27.4 35.1 40.2 41.3 43.6 44.4 37.4 28.9 26.3 25.4 24.5 23.7 23.0 22.5 22.0 21.6 21.3 21.1 20.9 20.7 20.5 20.4 20.2 20.1 20.1 26.4 35.3 53.5 80.4 88.2 79.1 90.5 77.9 41.0 28.1 26.3 25.1 24.2 23.4 22.7 22.2 21.8 21.5 21.2 21.0 20.8 20.6 20.4 20.3 20.1 20.1 29.3 38.3 67.3 147.6 209.8 204.1 200.7 142.6 55.0 30.8 27.6 26.0 24.8 23.9 23.1 22.4 22.0 21.6 21.3 21.0 20.8 20.6 20.4 20.3 20.1 20.1 30.2 35.1 60.0 155.7 283.0 342.8 333.3 201.8 61.7 34.3 29.3 26.8 25.4 24.2 23.3 22.6 22.1 21.6 21.3 21.0 20.8 20.6 20.4 20.2 20.1 20.1 29.0 35.3 57.8 142.9 275.7 346.2 346.8 237.9 89.6 38.2 29.5 26.9 25.3 24.1 23.3 22.6 22.1 21.6 21.3 21.0 20.8 20.6 20.4 20.2 20.1 20.1 27.2 32.5 54.8 121.0 203.8 227.3 229.4 206.2 117.0 46.8 28.2 26.1 24.8 23.8 23.0 22.4 22.0 21.5 21.2 21.0 20.8 20.6 20.4 20.2 20.1 20.1 25.5 27.3 36.6 59.3 84.4 98.3 107.8 107.7 77.8 40.9 26.6 25.1 24.1 23.3 22.7 22.2 21.8 21.4 21.2 20.9 20.7 20.6 20.4 20.2 20.1 20.1 23.5 25.5 27.1 30.9 35.5 42.4 45.3 39.2 31.6 27.0 25.3 24.4 23.6 23.0 22.4 22.0 21.6 21.3 21.0 20.8 20.7 20.5 20.4 20.2 20.1 20.1 20.0 20.0 20.0 20.0 20.0 20.0 20.0 20.0 20.0 20.0 20.0 20.0 20.0 20.0 20.0 20.0 20.0 20.0 20.0 20.0 20.0 20.0 20.0 20.0 20.1 20.1 20.1 20.1 20.1 20.1 20.1 20.1 20.1 20.1 20.1 20.1 20.1 20.1 20.1 20.1 20.1 20.1 20.1 20.1 20.1 20.1 20.1 20.1 20.1 20.1 20.1 20.1 20.1 20.1 20.1 20.2 20.1 20.1 20.1 20.2 20.2 20.2 20.2 20.1 20.1 20.1 20.1 20.1 20.1 20.1 20.1 20.1 20.1 20.1 20.2 20.2 20.1 20.0 20.2 20.2 20.2 20.3 20.2 20.2 20.2 20.3 20.3 20.3 20.2 20.2 20.2 20.2 20.2 20.2 20.2 20.2 20.2 20.2 20.2 20.2 20.2 20.2 20.1 20.0 20.3 20.3 20.3 20.4 20.4 20.3 20.3 20.4 20.4 20.4 20.3 20.3 20.3 20.3 20.3 20.3 20.3 20.3 20.3 20.3 20.3 20.3 20.2 20.1 20.1 20.0 20.3 20.4 20.4 20.5 20.5 20.5 20.5 20.5 20.5 20.5 20.5 20.4 20.4 20.4 20.4 20.4 20.4 20.4 20.4 20.4 20.4 20.3 20.2 20.1 20.1 20.0 20.5 20.5 20.6 20.6 20.6 20.6 20.6 20.7 20.7 20.7 20.6 20.6 20.6 20.6 20.6 20.6 20.5 20.5 20.5 20.5 20.4 20.3 20.2 20.1 20.1 20.0 20.6 20.6 20.7 20.8 20.8 20.8 20.8 20.9 20.9 20.9 20.8 20.8 20.8 20.7 20.7 20.7 20.7 20.6 20.6 20.5 20.4 20.3 20.2 20.1 20.1 20.0 20.7 20.8 20.9 20.9 21.0 21.0 21.0 21.1 21.1 21.1 21.0 21.0 20.9 20.9 20.9 20.8 20.8 20.7 20.6 20.5 20.4 20.3 20.2 20.1 20.1 20.0 20.9 21.0 21.1 21.2 21.2 21.3 21.3 21.4 21.4 21.3 21.2 21.2 21.1 21.1 21.0 20.9 20.9 20.8 20.7 20.6 20.5 20.3 20.2 20.1 20.1 20.0 21.1 21.2 21.3 21.4 21.5 21.6 21.7 21.7 21.7 21.6 21.5 21.4 21.3 21.3 21.2 21.1 21.0 20.9 20.7 20.6 20.5 20.4 20.2 20.1 20.1 20.0 21.3 21.4 21.6 21.7 21.9 22.0 22.1 22.2 22.1 21.9 21.8 21.7 21.6 21.4 21.3 21.2 21.1 20.9 20.8 20.7 20.5 20.4 20.3 20.2 20.1 20.0 21.6 21.7 21.9 22.0 22.2 22.4 22.5 22.6 22.5 22.3 22.1 21.9 21.8 21.7 21.5 21.3 21.2 21.0 20.9 20.7 20.5 20.4 20.3 20.2 20.1 20.0 21.8 22.0 22.2 22.4 22.7 22.9 23.1 23.2 23.0 22.7 22.5 22.3 22.1 21.9 21.7 21.5 21.3 21.1 20.9 20.7 20.6 20.4 20.3 20.2 20.1 20.0 22.1 22.4 22.7 22.9 23.3 23.5 23.9 24.0 23.6 23.2 22.9 22.6 22.4 22.1 21.9 21.6 21.4 21.2 21.0 20.8 20.6 20.4 20.3 20.2 20.1 20.0 22.5 23.5 24.0 23.8 24.0 24.4 24.9 24.9 24.3 23.8 23.4 23.1 22.7 22.4 22.1 21.8 21.5 21.2 21.0 20.8 20.6 20.4 20.3 20.2 20.1 20.0 23.0 24.8 25.9 25.4 25.5 27.2 27.8 26.3 25.3 24.6 24.0 23.6 23.1 22.7 22.3 21.9 21.6 21.3 21.0 20.8 20.6 20.5 20.3 20.2 20.1 20.0 23.7 26.0 28.8 29.0 27.1 29.3 31.6 28.9 26.5 25.4 24.7 24.1 23.5 23.0 22.5 22.1 21.7 21.4 21.1 20.9 20.7 20.5 20.4 20.2 20.1 20.1 25.6 31.9 41.4 42.2 34.9 34.5 37.7 33.5 28.3 26.6 25.6 24.7 23.9 23.3 22.7 22.2 21.8 21.5 21.2 21.0 20.8 20.6 20.4 20.3 20.1 20.1 33.1 55.6 84.1 95.4 72.4 54.7 59.2 49.4 35.2 29.1 26.7 25.4 24.4 23.7 23.0 22.4 22.0 21.7 21.4 21.1 20.9 20.7 20.5 20.3 20.1 20.1 39.1 70.2 126.6 190.4 168.2 119.6 121.5 88.4 45.5 32.6 28.2 26.3 25.1 24.2 23.4 22.7 22.2 21.8 21.4 21.1 20.9 20.7 20.5 20.3 20.1 20.1 36.7 59.4 120.2 221.4 228.1 212.3 246.1 163.6 61.3 36.7 30.0 27.3 25.8 24.6 23.6 22.9 22.3 21.8 21.4 21.1 20.9 20.6 20.4 20.3 20.1 20.1 33.2 54.5 115.8 216.0 226.6 255.0 329.7 243.4 101.5 38.9 30.1 27.5 25.9 24.6 23.6 22.9 22.3 21.8 21.4 21.1 20.8 20.6 20.4 20.3 20.1 20.1 33.6 53.4 110.1 192.5 198.3 206.4 262.4 236.4 125.1 40.9 28.3 26.6 25.2 24.1 23.3 22.7 22.2 21.7 21.4 21.1 20.9 20.6 20.4 20.3 20.1 20.1 32.1 44.7 67.8 100.0 107.9 105.0 124.9 126.0 78.8 35.9 26.6 25.5 24.4 23.6 22.9 22.4 22.0 21.6 21.3 21.0 20.8 20.6 20.4 20.3 20.1 20.1 25.7 32.4 35.2 37.3 39.6 41.4 45.1 41.5 32.7 27.3 25.5 24.7 23.9 23.2 22.7 22.2 21.8 21.4 21.2 20.9 20.7 20.6 20.4 20.3 20.1 20.1 20.0 20.0 20.0 20.0 20.0 20.0 20.0 20.0 20.0 20.0 20.0 20.0 20.0 20.0 20.0 20.0 20.0 20.0 20.0 20.0 20.0 20.0 20.0 20.1 20.1 20.1 20.1 20.1 20.1 20.1 20.1 20.1 20.1 20.1 20.1 20.1 20.1 20.1 20.1 20.1 20.1 20.1 20.1 20.1 20.1 20.1 20.1 20.1 20.1 20.1 20.1 20.1 20.1 20.1 20.2 20.2 20.2 20.2 20.2 20.2 20.2 20.2 20.2 20.2 20.1 20.1 20.1 20.1 20.1 20.1 20.2 20.2 20.2 20.2 20.2 20.2 20.1 20.1 20.2 20.2 20.3 20.3 20.3 20.3 20.3 20.3 20.3 20.3 20.3 20.3 20.2 20.2 20.2 20.3 20.3 20.3 20.3 20.3 20.3 20.3 20.3 20.2 20.1 20.0 20.3 20.3 20.4 20.4 20.4 20.4 20.4 20.4 20.4 20.4 20.4 20.4 20.4 20.4 20.4 20.4 20.4 20.4 20.4 20.4 20.4 20.3 20.3 20.2 20.1 20.0 20.4 20.4 20.5 20.5 20.5 20.5 20.5 20.6 20.6 20.6 20.5 20.5 20.5 20.5 20.5 20.5 20.5 20.5 20.5 20.5 20.4 20.4 20.3 20.2 20.1 20.0 20.5 20.5 20.6 20.6 20.6 20.6 20.7 20.7 20.8 20.8 20.7 20.7 20.7 20.7 20.7 20.7 20.7 20.6 20.6 20.5 20.5 20.4 20.3 20.2 20.1 20.0 20.7 20.7 20.8 20.8 20.8 20.8 20.9 21.0 21.0 21.0 20.9 20.9 20.9 20.9 20.8 20.8 20.8 20.7 20.7 20.6 20.5 20.4 20.3 20.2 20.1 20.0 20.8 20.9 21.0 21.0 21.1 21.1 21.1 21.2 21.3 21.2 21.2 21.1 21.1 21.1 21.0 20.9 20.9 20.8 20.7 20.6 20.5 20.4 20.3 20.2 20.1 20.0 21.0 21.1 21.2 21.3 21.3 21.4 21.5 21.5 21.5 21.5 21.4 21.3 21.3 21.2 21.2 21.1 21.0 20.9 20.8 20.7 20.6 20.4 20.3 20.2 20.1 20.0 21.2 21.3 21.4 21.5 21.6 21.7 21.8 21.9 21.9 21.8 21.7 21.6 21.5 21.4 21.3 21.2 21.1 21.0 20.9 20.7 20.6 20.4 20.3 20.2 20.1 20.0 21.4 21.5 21.7 21.8 21.9 22.1 22.2 22.3 22.2 22.1 21.9 21.8 21.7 21.6 21.5 21.3 21.2 21.1 20.9 20.8 20.6 20.5 20.3 20.2 20.1 20.0 21.6 21.8 22.0 22.1 22.3 22.5 22.6 22.7 22.6 22.4 22.3 22.1 22.0 21.8 21.7 21.5 21.3 21.2 21.0 20.8 20.7 20.5 20.3 20.2 20.1 20.0 21.9 22.1 22.3 22.5 22.7 22.9 23.2 23.3 23.1 22.9 22.6 22.4 22.2 22.0 21.9 21.7 21.5 21.3 21.1 20.9 20.7 20.5 20.3 20.2 20.1 20.0 22.2 22.5 22.8 23.0 23.2 23.5 23.9 24.0 23.7 23.4 23.0 22.8 22.5 22.3 22.0 21.8 21.6 21.3 21.1 20.9 20.7 20.5 20.3 20.2 20.1 20.0 22.7 23.8 24.4 23.8 23.8 24.2 24.7 24.8 24.4 23.9 23.5 23.2 22.9 22.6 22.3 22.0 21.7 21.4 21.2 20.9 20.7 20.5 20.4 20.2 20.1 20.1 23.5 26.2 27.2 25.7 25.3 26.4 26.9 26.1 25.3 24.6 24.1 23.7 23.2 22.8 22.5 22.1 21.8 21.5 21.2 20.9 20.7 20.5 20.4 20.2 20.1 20.1 26.9 30.5 30.3 27.4 25.7 28.0 29.7 28.0 26.4 25.5 24.8 24.2 23.6 23.1 22.7 22.3 21.9 21.6 21.3 21.0 20.8 20.6 20.4 20.3 20.1 20.1 40.7 43.5 41.0 34.5 28.1 30.6 33.7 31.7 28.7 26.6 25.7 24.8 24.1 23.5 22.9 22.5 22.1 21.7 21.4 21.1 20.9 20.7 20.5 20.3 20.2 20.1 66.4 85.6 99.1 79.8 46.8 43.8 49.6 45.6 37.9 30.1 26.9 25.5 24.6 23.9 23.2 22.7 22.2 21.9 21.5 21.2 20.9 20.7 20.5 20.3 20.2 20.1 71.5 119.9 174.5 158.8 86.3 70.6 85.9 74.2 52.3 35.0 28.4 26.4 25.2 24.4 23.6 22.9 22.4 22.0 21.6 21.2 20.9 20.7 20.5 20.3 20.2 20.1 53.4 107.5 181.8 184.0 122.2 141.1 186.0 140.6 70.6 38.8 30.1 27.3 25.9 24.9 23.9 23.1 22.5 22.0 21.6 21.2 20.9 20.7 20.5 20.3 20.1 20.1 44.5 94.4 172.1 179.9 144.8 215.4 282.2 211.1 95.1 38.4 30.3 27.5 26.0 24.9 23.9 23.1 22.5 22.0 21.5 21.2 20.9 20.7 20.5 20.3 20.1 20.1 49.7 98.2 168.2 190.4 156.8 182.0 219.0 179.0 92.2 34.9 28.8 26.6 25.3 24.3 23.6 22.9 22.4 21.9 21.5 21.2 20.9 20.7 20.5 20.3 20.1 20.1 44.5 81.9 118.3 130.9 106.9 86.2 89.9 83.1 55.1 31.1 27.0 25.6 24.6 23.8 23.2 22.6 22.2 21.8 21.5 21.2 20.9 20.7 20.5 20.3 20.1 20.1 28.2 45.7 56.3 51.3 42.9 37.0 36.8 35.1 30.9 27.6 25.7 24.9 24.2 23.5 23.0 22.5 22.0 21.7 21.3 21.1 20.8 20.6 20.5 20.3 20.1 20.1 20.0 20.0 20.0 20.0 20.0 20.0 20.0 20.0 20.0 20.0 20.0 20.0 20.0 20.0 20.0 20.0 20.0 20.0 20.0 20.0 20.0 20.0 20.1 20.1 20.1 20.1 20.1 20.1 20.1 20.1 20.1 20.1 20.1 20.1 20.1 20.1 20.1 20.1 20.1 20.1 20.1 20.1 20.1 20.1 20.1 20.1 20.1 20.1 20.1 20.1 20.1 20.1 20.1 20.2 20.2 20.2 20.2 20.2 20.2 20.2 20.2 20.2 20.2 20.2 20.2 20.2 20.2 20.2 20.2 20.2 20.2 20.2 20.2 20.2 20.2 20.2 20.1 20.1 20.2 20.2 20.3 20.3 20.3 20.3 20.3 20.3 20.3 20.3 20.3 20.3 20.3 20.3 20.3 20.3 20.3 20.3 20.3 20.3 20.3 20.3 20.3 20.2 20.1 20.1 20.3 20.3 20.4 20.4 20.4 20.4 20.4 20.4 20.5 20.5 20.4 20.4 20.4 20.4 20.4 20.5 20.5 20.5 20.5 20.5 20.4 20.4 20.3 20.2 20.1 20.0 20.4 20.4 20.5 20.5 20.5 20.5 20.5 20.6 20.6 20.6 20.6 20.6 20.6 20.6 20.6 20.6 20.6 20.6 20.6 20.6 20.5 20.5 20.4 20.2 20.1 20.0 20.5 20.6 20.6 20.7 20.7 20.7 20.7 20.8 20.9 20.9 20.8 20.8 20.8 20.8 20.8 20.8 20.8 20.7 20.7 20.6 20.6 20.5 20.4 20.2 20.1 20.0 20.7 20.8 20.8 20.9 20.9 20.9 20.9 21.0 21.1 21.1 21.1 21.0 21.0 21.0 21.0 21.0 20.9 20.8 20.8 20.7 20.6 20.5 20.4 20.2 20.1 20.0 20.9 21.0 21.0 21.1 21.1 21.2 21.2 21.3 21.4 21.4 21.3 21.3 21.2 21.2 21.1 21.1 21.0 20.9 20.9 20.8 20.7 20.5 20.4 20.2 20.1 20.0 21.1 21.2 21.3 21.3 21.4 21.5 21.6 21.7 21.7 21.6 21.5 21.5 21.4 21.4 21.3 21.2 21.1 21.0 20.9 20.8 20.7 20.5 20.4 20.2 20.1 20.1 21.3 21.4 21.5 21.6 21.7 21.8 21.9 22.0 22.0 21.9 21.8 21.7 21.6 21.6 21.5 21.4 21.3 21.1 21.0 20.9 20.7 20.6 20.4 20.2 20.1 20.1 21.5 21.6 21.8 21.9 22.0 22.2 22.3 22.4 22.3 22.2 22.1 22.0 21.9 21.8 21.6 21.5 21.4 21.3 21.1 20.9 20.8 20.6 20.4 20.2 20.1 20.1 21.7 21.8 22.0 22.2 22.4 22.6 22.8 22.8 22.7 22.6 22.4 22.2 22.1 22.0 21.8 21.7 21.5 21.4 21.2 21.0 20.8 20.6 20.4 20.2 20.1 20.1 21.9 22.1 22.4 22.5 22.7 23.0 23.3 23.4 23.2 23.0 22.8 22.6 22.4 22.2 22.0 21.8 21.6 21.4 21.2 21.0 20.8 20.6 20.4 20.2 20.1 20.1 22.2 22.5 22.8 23.0 23.2 23.5 23.9 24.0 23.7 23.5 23.2 22.9 22.7 22.5 22.2 22.0 21.8 21.5 21.3 21.1 20.8 20.6 20.4 20.2 20.1 20.1 22.7 23.3 23.6 23.5 23.7 24.1 24.6 24.7 24.4 24.0 23.6 23.3 23.0 22.7 22.4 22.2 21.9 21.6 21.3 21.1 20.8 20.6 20.4 20.3 20.1 20.1 23.6 25.5 26.0 25.2 24.9 25.4 25.8 25.8 25.2 24.7 24.2 23.8 23.4 23.0 22.7 22.3 22.0 21.7 21.4 21.1 20.8 20.6 20.4 20.3 20.1 20.1 27.9 31.6 29.1 25.8 26.5 27.8 27.5 27.0 26.2 25.5 24.9 24.3 23.8 23.3 22.9 22.5 22.1 21.8 21.4 21.1 20.9 20.6 20.5 20.3 20.1 20.1 48.7 50.3 37.2 28.7 31.0 33.2 31.2 30.5 28.8 26.6 25.7 25.0 24.2 23.7 23.2 22.7 22.3 21.9 21.5 21.2 20.9 20.7 20.5 20.3 20.2 20.1 95.1 105.8 82.4 52.2 51.4 53.7 45.5 45.6 40.7 30.4 26.9 25.7 24.7 24.0 23.4 22.9 22.4 22.1 21.7 21.3 21.0 20.8 20.6 20.4 20.2 20.1 114.8 157.7 142.6 89.3 86.0 92.6 79.8 81.3 65.0 37.2 28.6 26.6 25.4 24.5 23.9 23.2 22.6 22.1 21.7 21.3 21.0 20.8 20.5 20.3 20.2 20.1 88.2 148.1 150.5 111.5 141.3 170.8 162.5 139.2 83.4 41.5 30.2 27.5 26.0 25.0 24.2 23.4 22.7 22.2 21.7 21.3 20.9 20.7 20.5 20.3 20.1 20.1 65.5 127.0 142.3 123.9 192.7 251.0 230.2 165.1 82.6 40.1 30.4 27.4 26.0 25.0 24.1 23.3 22.7 22.2 21.7 21.3 21.0 20.7 20.5 20.3 20.1 20.1 60.8 127.0 165.4 157.2 173.3 196.1 166.0 110.1 64.2 36.6 29.5 26.5 25.3 24.4 23.7 23.1 22.6 22.1 21.7 21.3 21.0 20.7 20.5 20.3 20.2 20.1 49.1 104.0 147.8 139.0 100.2 79.1 65.3 49.5 43.0 33.1 27.7 25.6 24.7 24.0 23.4 22.9 22.4 22.0 21.6 21.3 21.0 20.7 20.5 20.3 20.2 20.1 29.7 55.1 73.6 63.8 45.5 35.5 33.2 32.5 32.4 29.4 26.0 25.0 24.4 23.8 23.2 22.7 22.3 21.9 21.5 21.2 20.9 20.7 20.5 20.3 20.2 20.1 20.0 20.0 20.0 20.0 20.0 20.0 20.0 20.0 20.0 20.0 20.0 20.0 20.0 20.0 20.0 20.0 20.0 20.0 20.0 20.0 20.1 20.1 20.1 20.1 20.1 20.1 20.1 20.1 20.1 20.1 20.1 20.1 20.1 20.1 20.1 20.1 20.1 20.1 20.1 20.1 20.1 20.1 20.1 20.1 20.1 20.1 20.1 20.1 20.2 20.2 20.2 20.1 20.1 20.2 20.2 20.2 20.2 20.2 20.2 20.2 20.2 20.2 20.2 20.2 20.2 20.2 20.2 20.2 20.2 20.2 20.2 20.2 20.3 20.3 20.3 20.3 20.2 20.1 20.2 20.3 20.3 20.3 20.3 20.3 20.3 20.3 20.3 20.3 20.3 20.3 20.3 20.3 20.3 20.4 20.4 20.4 20.4 20.4 20.4 20.4 20.4 20.3 20.2 20.1 20.3 20.3 20.4 20.4 20.4 20.4 20.4 20.4 20.5 20.5 20.5 20.5 20.5 20.5 20.5 20.5 20.6 20.6 20.6 20.6 20.5 20.5 20.4 20.3 20.1 20.1 20.4 20.5 20.5 20.5 20.5 20.5 20.5 20.6 20.7 20.7 20.7 20.7 20.7 20.7 20.7 20.7 20.7 20.7 20.7 20.7 20.6 20.6 20.4 20.3 20.1 20.1 20.6 20.6 20.6 20.7 20.7 20.7 20.7 20.8 20.9 20.9 20.9 20.9 20.9 20.9 20.9 20.9 20.9 20.8 20.8 20.7 20.7 20.6 20.4 20.3 20.1 20.1 20.7 20.8 20.8 20.9 20.9 20.9 21.0 21.1 21.2 21.2 21.2 21.1 21.1 21.1 21.1 21.1 21.0 20.9 20.9 20.8 20.7 20.6 20.4 20.2 20.1 20.1 20.9 21.0 21.1 21.1 21.2 21.2 21.3 21.4 21.5 21.5 21.4 21.3 21.3 21.3 21.2 21.2 21.1 21.0 21.0 20.9 20.8 20.6 20.4 20.2 20.1 20.1 21.1 21.2 21.3 21.4 21.5 21.5 21.6 21.7 21.8 21.7 21.6 21.5 21.5 21.4 21.4 21.3 21.2 21.1 21.1 20.9 20.8 20.6 20.4 20.2 20.1 20.1 21.3 21.4 21.6 21.7 21.8 21.9 22.0 22.1 22.1 22.0 21.8 21.8 21.7 21.6 21.5 21.4 21.3 21.2 21.1 21.0 20.8 20.6 20.4 20.3 20.1 20.1 21.5 21.6 21.8 21.9 22.1 22.2 22.4 22.5 22.4 22.3 22.1 22.0 21.9 21.8 21.7 21.6 21.5 21.4 21.2 21.1 20.9 20.7 20.4 20.3 20.1 20.1 21.7 21.9 22.1 22.2 22.4 22.6 22.8 22.9 22.8 22.6 22.4 22.3 22.2 22.0 21.9 21.7 21.6 21.5 21.3 21.1 20.9 20.7 20.4 20.3 20.1 20.1 21.9 22.1 22.3 22.5 22.7 23.0 23.3 23.4 23.2 23.0 22.8 22.6 22.4 22.3 22.1 21.9 21.8 21.6 21.4 21.1 20.9 20.7 20.4 20.3 20.1 20.1 22.2 22.5 22.7 22.9 23.1 23.5 23.9 24.0 23.7 23.5 23.2 23.0 22.8 22.5 22.3 22.1 21.9 21.7 21.4 21.2 20.9 20.6 20.4 20.3 20.1 20.1 22.6 23.0 23.2 23.4 23.6 24.0 24.4 24.6 24.4 24.0 23.7 23.4 23.1 22.8 22.5 22.3 22.0 21.8 21.5 21.2 20.9 20.6 20.4 20.3 20.1 20.1 23.7 24.5 24.7 24.6 24.6 24.8 25.2 25.5 25.2 24.7 24.3 23.9 23.5 23.1 22.8 22.5 22.2 21.8 21.5 21.2 20.9 20.7 20.4 20.3 20.1 20.1 27.3 32.0 30.1 26.2 27.0 26.5 26.4 26.5 26.1 25.5 24.9 24.4 23.9 23.4 23.0 22.7 22.3 21.9 21.6 21.3 21.0 20.7 20.5 20.3 20.2 20.1 40.2 51.8 42.1 29.8 34.1 32.0 29.6 29.9 29.1 27.1 25.7 25.0 24.4 23.8 23.3 22.9 22.5 22.1 21.7 21.3 21.0 20.7 20.5 20.3 20.2 20.1 81.5 96.7 72.6 56.3 72.8 64.5 49.2 48.0 42.4 31.8 27.0 25.8 24.9 24.2 23.6 23.1 22.6 22.2 21.8 21.4 21.1 20.8 20.6 20.4 20.2 20.1 119.3 139.8 112.0 105.8 136.0 120.9 95.3 93.2 75.1 42.4 29.2 27.0 25.6 24.6 24.0 23.4 22.8 22.3 21.8 21.4 21.0 20.8 20.5 20.3 20.2 20.1 106.4 139.7 136.5 154.7 195.5 180.5 159.5 136.4 90.5 47.0 31.3 27.9 26.1 25.1 24.3 23.6 23.0 22.4 21.9 21.4 21.0 20.7 20.5 20.3 20.2 20.1 73.0 117.2 132.9 169.4 219.5 212.9 182.7 123.0 72.3 43.1 31.6 27.8 26.0 25.0 24.2 23.6 23.0 22.4 21.9 21.4 21.0 20.7 20.5 20.3 20.2 20.1 54.9 109.5 146.1 164.2 168.4 160.5 127.8 74.3 54.6 40.9 30.7 26.8 25.4 24.6 23.9 23.3 22.8 22.3 21.8 21.4 21.0 20.8 20.5 20.3 20.2 20.1 42.4 91.5 137.8 128.7 88.3 72.8 61.2 45.8 45.7 39.0 29.5 25.9 24.9 24.2 23.6 23.1 22.6 22.2 21.7 21.4 21.0 20.8 20.5 20.4 20.2 20.1 28.6 49.9 68.9 61.0 41.7 34.0 34.1 35.3 38.6 34.9 27.4 25.2 24.5 23.9 23.3 22.8 22.4 22.0 21.7 21.3 21.0 20.7 20.5 20.3 20.2 20.1 20.0 20.0 20.0 20.0 20.0 20.0 20.0 20.0 20.1 20.1 20.1 20.0 20.0 20.0 20.0 20.0 20.0 20.1 20.1 20.1 20.1 20.1 20.1 20.1 20.1 20.1 20.1 20.1 20.1 20.1 20.1 20.1 20.1 20.1 20.1 20.1 20.1 20.1 20.1 20.1 20.1 20.1 20.1 20.1 20.1 20.1 20.1 20.2 20.2 20.2 20.2 20.1 20.1 20.2 20.2 20.2 20.2 20.2 20.2 20.2 20.2 20.2 20.2 20.2 20.2 20.2 20.2 20.2 20.2 20.3 20.3 20.3 20.3 20.3 20.3 20.3 20.2 20.1 20.2 20.2 20.3 20.3 20.3 20.3 20.3 20.3 20.3 20.4 20.4 20.4 20.3 20.3 20.4 20.4 20.4 20.5 20.5 20.5 20.5 20.5 20.5 20.4 20.2 20.1 20.3 20.3 20.4 20.4 20.4 20.4 20.4 20.4 20.5 20.5 20.6 20.5 20.5 20.5 20.6 20.6 20.6 20.6 20.6 20.6 20.6 20.6 20.5 20.3 20.2 20.1 20.4 20.5 20.5 20.5 20.5 20.5 20.6 20.6 20.7 20.8 20.8 20.7 20.7 20.8 20.8 20.8 20.8 20.8 20.8 20.7 20.7 20.6 20.5 20.3 20.1 20.1 20.6 20.6 20.7 20.7 20.7 20.7 20.8 20.9 21.0 21.0 21.0 21.0 21.0 21.0 21.0 21.0 20.9 20.9 20.8 20.8 20.7 20.6 20.5 20.3 20.1 20.1 20.8 20.8 20.9 20.9 20.9 21.0 21.1 21.2 21.3 21.3 21.2 21.2 21.1 21.1 21.1 21.1 21.0 21.0 20.9 20.8 20.8 20.7 20.5 20.3 20.1 20.1 20.9 21.0 21.1 21.2 21.2 21.3 21.4 21.5 21.6 21.5 21.4 21.3 21.3 21.3 21.2 21.2 21.1 21.0 21.0 20.9 20.8 20.7 20.5 20.3 20.1 20.1 21.1 21.2 21.3 21.4 21.5 21.6 21.7 21.8 21.9 21.8 21.6 21.5 21.5 21.4 21.4 21.3 21.2 21.1 21.1 21.0 20.9 20.7 20.5 20.3 20.1 20.1 21.3 21.4 21.6 21.7 21.8 21.9 22.1 22.2 22.1 22.0 21.8 21.7 21.7 21.6 21.5 21.4 21.3 21.2 21.2 21.1 20.9 20.7 20.5 20.3 20.1 20.1 21.5 21.6 21.8 21.9 22.1 22.3 22.5 22.5 22.4 22.2 22.1 22.0 21.9 21.8 21.7 21.6 21.5 21.4 21.3 21.1 20.9 20.7 20.5 20.3 20.1 20.1 21.7 21.9 22.1 22.2 22.4 22.7 22.9 22.9 22.8 22.6 22.4 22.2 22.1 22.0 21.8 21.7 21.6 21.5 21.3 21.2 21.0 20.7 20.5 20.3 20.1 20.1 21.9 22.2 22.3 22.5 22.7 23.1 23.3 23.4 23.2 22.9 22.7 22.6 22.4 22.2 22.1 21.9 21.7 21.6 21.4 21.2 21.0 20.7 20.5 20.3 20.1 20.1 22.1 