<?xml version="1.0"?>
<VTKFile type="PolyData" version="1.0" byte_order="LittleEndian" header_type="UInt64">
<PolyData>
<Piece NumberOfPoints="1902" NumberOfVerts="0" NumberOfLines="0" NumberOfPolys="0">
    <Points>
        <DataArray type="Float32" NumberOfComponents="3" format="ascii">
        15.4941 6.2640 4.6104 17.9793 10.8534 3.2278 17.6121 10.4736 3.5950 18.1638 10.9694 3.0433 18.1974 10.7971 3.0097 17.6195 10.4211 3.5876 16.8241 10.0000 1.7128 18.2202 10.6403 2.9869 17.8694 10.7533 3.3377 16.3795 7.3373 3.6327 16.8902 8.3041 1.4390 18.0175 11.0138 3.1896 17.9669 10.3841 3.2402 18.1563 11.3958 3.0508 16.0848 7.4393 3.4854 16.9222 8.2105 3.9114 18.0589 10.6691 3.1482 17.9653 10.7172 3.2418 16.1702 7.9481 2.9608 18.2969 11.3442 2.9102 18.0286 11.2595 3.1785 17.8080 11.3775 3.3991 16.9952 8.3682 1.3468 18.2971 11.3436 2.9100 16.5644 7.6131 4.0495 18.0968 11.3823 3.1103 18.2989 10.9569 2.9082 16.4246 9.4104 1.3009 16.8580 8.7384 1.4107 17.1776 8.7170 2.0993 16.9301 8.2501 1.6410 18.2739 10.6759 2.9332 18.2400 10.6253 2.9671 18.3461 11.0829 2.8610 17.1418 7.4457 2.3564 16.9694 8.4626 2.1707 16.6296 7.8183 3.5711 16.8083 10.0000 1.6072 18.2681 10.6017 2.9390 17.9304 11.1138 3.2767 15.6027 9.0275 2.4166 16.7770 9.4023 1.3034 16.4020 8.0568 2.6381 18.2785 10.7221 2.9286 16.7067 8.1483 2.6267 16.2612 7.2271 3.6479 16.0446 6.5038 4.6720 16.9054 7.1605 3.9936 16.5532 8.4018 2.6016 15.7986 9.5500 1.8544 18.1732 10.9168 3.0339 15.6395 9.9138 1.6537 16.9427 8.2246 1.6649 18.0902 10.7750 3.1169 15.5700 7.6172 4.5101 18.0967 10.4958 3.1104 16.8005 9.9421 3.4018 18.3105 10.8178 2.8966 18.1534 10.7594 3.0537 16.1516 9.4404 1.6037 16.1779 10.1294 1.3556 18.0607 11.2524 3.1464 15.2642 8.8848 3.4840 16.8053 7.1121 3.3174 18.1698 10.8873 3.0373 18.1699 10.4161 3.0372 17.1524 5.3282 4.5710 16.5427 7.7667 2.7350 16.7504 4.1618 5.9779 18.0414 10.5293 3.1657 17.9914 10.3772 3.2157 18.2411 10.6705 2.9660 16.9901 5.4309 4.9037 18.1544 10.5063 3.0527 18.0237 10.3075 3.1834 18.3897 10.5255 2.8174 18.0625 11.3054 3.1447 15.3177 7.5543 5.1560 18.3359 10.6904 2.8712 15.8662 9.4554 3.1807 18.2253 11.2571 2.9818 18.0712 10.2295 3.1359 16.6889 10.0000 2.4927 16.2488 6.4611 4.8908 18.3662 10.8315 2.8409 17.5584 10.2371 3.6487 17.5138 10.5232 3.6933 16.3860 6.0789 5.0842 16.1551 10.0000 2.9079 17.9826 10.3841 3.2245 15.9036 10.0000 2.6238 18.2387 10.5962 2.9684 15.3325 7.3675 5.5960 18.4311 10.5505 2.7760 18.1781 10.5890 3.0290 15.8351 9.9332 2.9628 17.2470 10.1109 3.9601 18.2693 11.1909 2.9378 15.3634 8.2243 4.6317 15.0938 9.1367 4.0019 16.9879 10.2001 4.2192 18.2057 10.0000 2.9680 18.1846 11.2516 3.0226 15.4403 10.0000 3.9333 18.0687 11.2962 3.1384 15.0660 9.6069 5.1538 17.3642 10.3759 3.8429 18.0188 11.2948 3.1883 18.2983 11.3859 2.9088 15.8429 10.0000 2.8766 15.4273 8.8792 4.7781 17.9626 11.1890 3.2445 18.3471 10.4991 2.8600 15.6821 9.7849 3.6192 15.8032 10.0000 3.1460 17.0734 10.2114 4.1337 17.3959 10.3197 3.8112 17.9771 11.3279 3.2300 15.2572 10.2336 5.0471 17.4379 10.5450 3.7692 18.2836 10.5285 2.9235 16.8548 10.3117 4.3523 17.2078 10.1938 3.9993 18.3726 10.7568 2.8345 18.4066 10.5008 2.8005 18.4098 10.8925 2.7973 18.2105 10.9115 2.9966 18.4260 10.7549 2.7811 18.3215 11.2117 2.8856 18.3141 11.1730 2.8930 16.9119 10.2708 4.2952 17.5160 10.4643 3.6911 16.7317 10.2402 4.4754 17.5367 10.3699 3.6704 15.5166 8.8973 4.9906 16.9391 10.1498 4.2680 18.4001 10.7827 2.8070 17.1645 10.4190 4.0426 17.2205 10.4227 3.9866 18.1528 10.9290 3.0543 15.0096 9.1969 5.7191 18.4633 10.7743 2.7438 18.3313 11.2476 2.8758 17.8375 10.3664 3.3696 18.1531 10.5207 3.0540 18.1946 10.8488 3.0125 18.0663 10.9204 3.1408 16.3024 10.0000 2.8187 18.2844 10.8453 2.9228 15.3758 10.5496 4.0545 17.9156 10.4604 3.2915 18.3513 11.3574 2.8558 18.2062 10.9436 3.0009 18.1697 10.5379 3.0374 17.5534 10.5315 3.6537 18.1668 10.9948 3.0403 15.9422 10.0004 3.7831 18.0016 11.1692 3.2055 16.5606 10.0000 2.1826 15.9578 10.0000 3.1897 17.4010 10.0000 2.9276 16.0223 10.0000 2.8862 18.3708 10.5777 2.8363 18.1874 11.3709 3.0197 18.0107 11.1006 3.1964 18.0888 10.7109 3.1183 15.7607 9.8365 4.0721 18.0316 10.9788 3.1755 18.0115 10.2477 3.1956 17.2881 10.4186 3.9190 17.9391 11.2439 3.2680 18.3049 10.3986 2.9022 15.3263 9.7713 5.2843 18.4206 11.1630 2.7865 18.3990 10.8859 2.8082 17.2084 10.4788 3.9988 18.0717 11.2056 3.1354 15.9790 10.0000 2.8946 17.7204 10.3687 3.4867 18.1042 10.7358 3.1029 18.1391 10.8146 3.0680 17.8716 11.2348 3.3355 16.0338 10.0000 2.6558 18.3718 10.8229 2.8353 17.5244 10.0000 0.6754 15.5407 9.8893 4.6472 18.0185 11.1133 3.1886 15.4379 10.0000 3.7373 17.7101 11.0732 3.4970 16.1030 9.4984 1.5465 15.3094 10.4398 3.3746 16.1105 9.7568 4.3775 18.1098 10.6756 3.0973 18.3130 11.3753 2.8941 18.0422 10.9072 3.1649 18.3666 10.8737 2.8405 18.2495 10.2947 2.9577 15.8241 9.4240 3.6374 18.1051 10.5415 3.1020 16.6867 10.0000 2.2810 18.3562 10.4695 2.8509 17.4040 9.9297 2.9667 18.0707 11.3328 3.1364 18.2692 11.0200 2.9379 16.5933 10.0000 2.0826 17.5979 11.2918 3.6092 18.2187 11.1747 2.9884 17.8713 11.3590 3.3358 18.3468 10.6676 2.8603 17.9890 10.6405 3.2182 16.0495 9.9912 3.2256 17.9809 10.7339 3.2262 15.4998 9.2949 2.0334 16.7991 10.0000 2.2329 18.1340 10.3897 3.0731 18.0007 10.6640 3.2064 17.8176 10.3952 3.3895 18.0243 10.7295 3.1828 17.7569 11.1833 3.4502 18.3979 10.7568 2.8092 16.7349 10.0000 2.4512 17.6560 11.2785 3.5511 16.9135 9.6762 2.0688 16.5044 9.2182 3.1443 15.2946 9.4799 4.1560 18.2412 10.5877 2.9659 18.4788 10.7129 2.7283 18.3139 11.2034 2.8932 15.9390 9.2683 2.6192 15.6341 9.2866 4.3070 18.2560 11.3234 2.9511 15.4607 10.0000 3.6666 18.3796 10.8284 2.8275 18.3201 10.4379 2.8871 16.2312 7.1838 2.0310 17.4418 10.0000 0.9545 18.3721 10.7620 2.8350 18.4413 10.7631 2.7658 18.1722 10.6338 3.0349 17.8804 11.2914 3.3267 18.0050 10.2346 3.2021 18.1192 10.4638 3.0879 17.7777 11.2343 3.4294 17.8831 11.1604 3.3240 18.3882 10.7978 2.8189 18.4769 10.6821 2.7302 18.2157 11.3564 2.9915 18.3549 10.4281 2.8522 15.7883 7.8289 2.5165 16.3838 8.7994 3.3466 15.2303 9.3483 3.7362 16.0296 8.8173 3.2831 18.1124 10.5425 3.0947 18.3763 10.3814 2.8308 17.7967 10.8062 3.4104 18.2434 10.4351 2.9637 17.2566 9.4451 1.7894 17.7072 10.9850 3.4999 17.8526 11.3098 3.3545 18.2033 11.2916 3.0038 18.1693 11.2140 3.0378 16.3399 6.9673 2.6702 17.9643 11.3742 3.2428 17.4090 9.9419 2.6633 18.1299 10.1556 3.0772 17.9254 11.3391 3.2817 16.1209 7.4484 2.7929 17.8010 10.4414 3.4061 15.8340 7.6923 1.7638 17.9447 10.8018 3.2624 17.3268 10.0000 1.5581 17.6688 10.2574 3.5383 15.5114 8.7105 4.0105 16.2247 7.8403 2.6139 18.3981 10.6246 2.8090 15.4376 7.9442 3.6469 18.3785 10.6490 2.8286 17.8138 10.6959 3.3933 18.1741 10.3685 3.0330 18.0459 10.7190 3.1612 15.4629 7.4965 3.6097 15.4557 7.1282 2.5490 16.0998 7.0165 3.3395 15.1968 7.6537 2.8405 16.2696 7.4040 2.8316 18.3273 10.2297 2.8798 17.8666 10.7657 3.3405 15.7144 7.9171 4.5057 18.2673 10.4857 2.9399 18.4636 10.6695 2.7436 17.7174 10.7638 3.4897 15.5063 7.0299 2.5979 17.6414 10.9858 3.5657 15.7802 7.1972 3.1035 18.3141 10.4501 2.8930 17.9764 10.0892 3.2307 17.8313 11.3099 3.3758 18.0919 10.6370 3.1152 17.3500 10.8660 3.8571 17.6970 11.1134 3.5101 17.6705 10.6538 3.5366 18.4158 10.7554 2.7913 17.5080 11.3746 3.6991 17.7847 11.1782 3.4224 18.3230 11.2706 2.8841 18.0312 10.5910 3.1759 16.7490 7.7604 1.9648 18.0052 10.1736 3.2019 18.0007 11.0311 3.2064 17.3873 8.2099 2.0759 17.7486 11.0859 3.4585 17.6157 11.2999 3.5914 18.0547 10.9253 3.1524 18.1594 11.3984 3.0477 15.6344 6.7188 3.9281 18.4026 10.4386 2.8045 18.0450 11.0309 3.1621 15.7860 6.1947 3.8788 15.9498 6.1627 3.5748 17.0996 10.0000 1.4638 17.1070 11.8406 4.1001 18.2326 11.1085 2.9745 17.9518 11.3042 3.2553 17.1743 11.9791 4.0328 18.0342 10.0764 3.1730 17.9736 10.7059 3.2335 15.6402 6.4725 4.6333 15.4155 6.3069 4.9789 15.4899 6.7113 3.9665 16.0694 5.3803 5.7478 17.5394 10.7251 3.6677 15.7441 6.1861 3.9965 18.2128 10.6661 2.9943 15.1996 6.3019 4.0989 18.2298 11.1218 2.9773 17.1458 10.0000 2.8953 16.9261 5.7629 3.4849 18.0221 10.7624 3.1850 17.8880 10.7576 3.3191 15.8923 5.8141 4.5870 17.9235 11.3289 3.2836 15.7394 5.1558 5.3743 15.7567 6.1504 4.1120 17.1367 11.8856 4.0704 16.6474 8.2852 1.9408 17.8078 11.0648 3.3993 17.1933 11.6278 4.0138 15.3774 6.6677 3.7988 17.1825 11.9215 4.0247 17.6461 11.1637 3.5610 17.2403 11.5892 3.9668 17.2364 11.8662 3.9708 17.9335 10.9073 3.2736 18.2995 10.3958 2.9076 17.7832 10.6156 3.4239 16.7568 4.6531 5.0335 16.9329 4.5903 3.9910 15.5991 5.3885 5.1002 17.6054 10.0653 3.6017 16.0763 5.5428 4.2992 15.3251 4.9588 5.3686 17.7813 10.4728 3.4258 16.9069 10.0000 1.6058 16.4792 7.5902 2.5399 17.0091 8.2381 2.6537 17.1566 11.7855 4.0505 18.2506 10.5281 2.9565 18.2553 10.4201 2.9518 17.2131 11.3246 3.9940 16.7786 4.6737 4.4198 17.2425 11.8638 3.9647 16.2824 1.0797 7.2730 18.3094 10.4344 2.8977 18.2269 10.8607 2.9802 16.8758 5.1591 4.4298 16.4173 8.2330 3.0540 17.7968 11.1904 3.4103 17.4496 10.7023 3.7575 17.9722 11.1762 3.2349 17.2050 11.4618 4.0021 18.1609 10.8424 3.0462 17.7926 10.6119 3.4145 18.0275 11.3231 3.1796 17.4221 10.7297 3.7850 18.1952 10.7667 3.0119 17.1177 11.8081 4.0894 17.0286 11.8891 4.1785 17.7133 11.3173 3.4938 18.0012 10.0000 2.7593 17.2246 11.4495 3.9825 16.5600 3.5911 5.7864 16.3420 7.0414 3.7544 17.1976 11.3325 4.0096 17.5798 10.0000 2.4008 16.6596 9.1594 2.4760 18.0216 10.9127 3.1855 17.1737 8.9686 3.2521 17.6676 10.9903 3.5395 17.9720 10.6811 3.2351 17.3971 10.9327 3.8100 16.3953 5.9418 5.4333 17.9433 10.2310 3.2638 16.3683 9.6209 2.9975 16.9450 2.4746 6.4201 17.9009 10.8257 3.3062 18.2833 10.4573 2.9238 17.4724 10.6047 3.7347 17.2155 10.8546 3.9916 17.5910 11.0371 3.6162 17.4916 11.2717 3.7155 16.4360 8.3034 3.9463 18.2802 10.9078 2.9270 17.6405 11.0823 3.5666 17.1097 8.5283 2.8741 16.7812 8.8712 4.2004 18.0339 10.9654 3.1732 18.1821 10.5274 3.0250 18.0609 11.0926 3.1462 16.8194 8.6380 3.3154 16.5220 8.2818 4.4398 16.7690 10.2983 4.4381 18.2392 10.7608 2.9679 16.4438 7.5142 4.9522 16.9294 11.7454 4.2777 16.2775 8.4902 4.3803 17.3117 10.3121 3.8954 17.8884 11.2703 3.3187 
[...]
    <PointData>
        <DataArray type="Float32" Name="tag" format="ascii">
            131.0000 207.0000 299.0000 383.0000 627.0000 739.0000 935.0000 1131.0000 1567.0000 1791.0000 1855.0000 1883.0000 1907.0000 1927.0000 2035.0000 2191.0000 2391.0000 2475.0000 2491.0000 2563.0000 2767.0000 3023.0000 3087.0000 3195.0000 3271.0000 3567.0000 3711.0000 3775.0000 3795.0000 4127.0000 4187.0000 4395.0000 4415.0000 4551.0000 4555.0000 4583.0000 4643.0000 4751.0000 4891.0000 4899.0000 4947.0000 5035.0000 5115.0000 5299.0000 5455.0000 5643.0000 5703.0000 5815.0000 5891.0000 6207.0000 6275.0000 6663.0000 6671.0000 6851.0000 6911.0000 7147.0000 7175.0000 7183.0000 7427.0000 7495.0000 7783.0000 7867.0000 7883.0000 7919.0000 7983.0000 8199.0000 8263.0000 8291.0000 8603.0000 8615.0000 8815.0000 9019.0000 9027.0000 9039.0000 9255.0000 9295.0000 9379.0000 9407.0000 9459.0000 9471.0000 9695.0000 9751.0000 9799.0000 9963.0000 10131.0000 10155.0000 10279.0000 10311.0000 10419.0000 10495.0000 10515.0000 10531.0000 10611.0000 10691.0000 10763.0000 11283.0000 11351.0000 11367.0000 11427.0000 11435.0000 11439.0000 11471.0000 11551.0000 11759.0000 11807.0000 11855.0000 12011.0000 12127.0000 12143.0000 12171.0000 12211.0000 12219.0000 12239.0000 12279.0000 12359.0000 12395.0000 12411.0000 12427.0000 12631.0000 12719.0000 12939.0000 13023.0000 13083.0000 13119.0000 13179.0000 13415.0000 13775.0000 13787.0000 13811.0000 13847.0000 13875.0000 14087.0000 14151.0000 14179.0000 14215.0000 14255.0000 14295.0000 14327.0000 14491.0000 14555.0000 14763.0000 14899.0000 14903.0000 15083.0000 15279.0000 15283.0000 15399.0000 15407.0000 15567.0000 15575.0000 15671.0000 15695.0000 15783.0000 15935.0000 15971.0000 16007.0000 16031.0000 16087.0000 16099.0000 16135.0000 16147.0000 16187.0000 16539.0000 16643.0000 16807.0000 16811.0000 17007.0000 17103.0000 17231.0000 17235.0000 17375.0000 17555.0000 17567.0000 17651.0000 17903.0000 17919.0000 17947.0000 17955.0000 18279.0000 18511.0000 18763.0000 19115.0000 19143.0000 19231.0000 19347.0000 19547.0000 19923.0000 20267.0000 20519.0000 20707.0000 20955.0000 21071.0000 21147.0000 21239.0000 21323.0000 21439.0000 21615.0000 21671.0000 21719.0000 21819.0000 21919.0000 22071.0000 22107.0000 22311.0000 22467.0000 22595.0000 22835.0000 23239.0000 23255.0000 23339.0000 23355.0000 23367.0000 23371.0000 23607.0000 23623.0000 23731.0000 23847.0000 23951.0000 24011.0000 24127.0000 24223.0000 24307.0000 24467.0000 24699.0000 24707.0000 24743.0000 24847.0000 25011.0000 25135.0000 25151.0000 25243.0000 25303.0000 25403.0000 25579.0000 25603.0000 25655.0000 25739.0000 26039.0000 26175.0000 26187.0000 26207.0000 26471.0000 26507.0000 26815.0000 26875.0000 26959.0000 27083.0000 27135.0000 27387.0000 27527.0000 27587.0000 27723.0000 27967.0000 27991.0000 28031.0000 28199.0000 28231.0000 28351.0000 28467.0000 28479.0000 28503.0000 28619.0000 28627.0000 28675.0000 28779.0000 28875.0000 28883.0000 28923.0000 29267.0000 29407.0000 29439.0000 29639.0000 29719.0000 29991.0000 30023.0000 30087.0000 30379.0000 30395.0000 30827.0000 30863.0000 31167.0000 31199.0000 31235.0000 31607.0000 31631.0000 31639.0000 31723.0000 31915.0000 31967.0000 32111.0000 32255.0000 32335.0000 32479.0000 32607.0000 32611.0000 32667.0000 32779.0000 32943.0000 33107.0000 33351.0000 33435.0000 33563.0000 33599.0000 33843.0000 33867.0000 33943.0000 34103.0000 34135.0000 34167.0000 34295.0000 34331.0000 34571.0000 34631.0000 34675.0000 34791.0000 34859.0000 35111.0000 35239.0000 35271.0000 35359.0000 35367.0000 35383.0000 35487.0000 35495.0000 35535.0000 35675.0000 35715.0000 35779.0000 35855.0000 35963.0000 35995.0000 36087.0000 36223.0000 36359.0000 36435.0000 36495.0000 36535.0000 36547.0000 36699.0000 36711.0000 36795.0000 36935.0000 36947.0000 37263.0000 37363.0000 37387.0000 37503.0000 37555.0000 37699.0000 37735.0000 38003.0000 38107.0000 38183.0000 38219.0000 38247.0000 38399.0000 38491.0000 38523.0000 38535.0000 38583.0000 38591.0000 38627.0000 38711.0000 38735.0000 38775.0000 38927.0000 39019.0000 39063.0000 39147.0000 39283.0000 39331.0000 39383.0000 39407.0000 39447.0000 39843.0000 39903.0000 39907.0000 39943.0000 40103.0000 40263.0000 40323.0000 40335.0000 40399.0000 40439.0000 40535.0000 40551.0000 40675.0000 40711.0000 40727.0000 40747.0000 40963.0000 41183.0000 41231.0000 41359.0000 41391.0000 41447.0000 41479.0000 41499.0000 41515.0000 41551.0000 41567.0000 41699.0000 41751.0000 41895.0000 41939.0000 41959.0000 42015.0000 42139.0000 42223.0000 42351.0000 42375.0000 42491.0000 42815.0000 42875.0000 42967.0000 43043.0000 43239.0000 43311.0000 43347.0000 43351.0000 43367.0000 43411.0000 43467.0000 43479.0000 43483.0000 43535.0000 43815.0000 43867.0000 43903.0000 43959.0000 44003.0000 44151.0000 44211.0000 44219.0000 44331.0000 44391.0000 44487.0000 44539.0000 44627.0000 45039.0000 45131.0000 45287.0000 45339.0000 45371.0000 45395.0000 45611.0000 45619.0000 45723.0000 45827.0000 45875.0000 45887.0000 45931.0000 46031.0000 46091.0000 46239.0000 46347.0000 46351.0000 46443.0000 46491.0000 46535.0000 46683.0000 46715.0000 46735.0000 46803.0000 46887.0000 50003.0000 58755.0000 57135.0000 64467.0000 65415.0000 60363.0000 59571.0000 62027.0000 58735.0000 66311.0000 66307.0000 58715.0000 64427.0000 63635.0000 64419.0000 65379.0000 66299.0000 62791.0000 67147.0000 60315.0000 61195.0000 57979.0000 63571.0000 61283.0000 61995.0000 66283.0000 50895.0000 66279.0000 65331.0000 60439.0000 62891.0000 59611.0000 57151.0000 57147.0000 62067.0000 62063.0000 59607.0000 55207.0000 64491.0000 58763.0000 46995.0000 47015.0000 47019.0000 47043.0000 47063.0000 47191.0000 47299.0000 47311.0000 47347.0000 47355.0000 47411.0000 47419.0000 47575.0000 47647.0000 47951.0000 48003.0000 48039.0000 48071.0000 48219.0000 48255.0000 48363.0000 48411.0000 48551.0000 48791.0000 48903.0000 48931.0000 49099.0000 49111.0000 49155.0000 49199.0000 49299.0000 49311.0000 49507.0000 49523.0000 49643.0000 49683.0000 49767.0000 49771.0000 49863.0000 49967.0000 50039.0000 50047.0000 50059.0000 50063.0000 50123.0000 50139.0000 50215.0000 50311.0000 50415.0000 50539.0000 50675.0000 50735.0000 50751.0000 50795.0000 50815.0000 51007.0000 51087.0000 51191.0000 51199.0000 51271.0000 51275.0000 51291.0000 51379.0000 51527.0000 51691.0000 51799.0000 51815.0000 51843.0000 51891.0000 51999.0000 52391.0000 52491.0000 52671.0000 52675.0000 52827.0000 52835.0000 52923.0000 52931.0000 52939.0000 52963.0000 52995.0000 53107.0000 53123.0000 53131.0000 53187.0000 53191.0000 53195.0000 53363.0000 53423.0000 53515.0000 53535.0000 53539.0000 53583.0000 53599.0000 53963.0000 54415.0000 54499.0000 54519.0000 54599.0000 54727.0000 54755.0000 54827.0000 54935.0000 55011.0000 55015.0000 55035.0000 55039.0000 55143.0000 55283.0000 55399.0000 55411.0000 55443.0000 55543.0000 55575.0000 55623.0000 55651.0000 55703.0000 56031.0000 56047.0000 56071.0000 56075.0000 56103.0000 56307.0000 56467.0000 56535.0000 56599.0000 56603.0000 56731.0000 56759.0000 56779.0000 56947.0000 56991.0000 57063.0000 57183.0000 57207.0000 57395.0000 57487.0000 57787.0000 57847.0000 57891.0000 58003.0000 58095.0000 58143.0000 58179.0000 58331.0000 58379.0000 58471.0000 58527.0000 58539.0000 58607.0000 58647.0000 58819.0000 58875.0000 58903.0000 59035.0000 59151.0000 59167.0000 59423.0000 59435.0000 59459.0000 59667.0000 59731.0000 59923.0000 59927.0000 59947.0000 60063.0000 60167.0000 60475.0000 60495.0000 60563.0000 60651.0000 60671.0000 60675.0000 61407.0000 61587.0000 61607.0000 61627.0000 61659.0000 61847.0000 61895.0000 61899.0000 61967.0000 62139.0000 62211.0000 62419.0000 62431.0000 62447.0000 62527.0000 62535.0000 62599.0000 62675.0000 62747.0000 62951.0000 63403.0000 63815.0000 63855.0000 63887.0000 63911.0000 63927.0000 63995.0000 64019.0000 64059.0000 64123.0000 64295.0000 64587.0000 64607.0000 64683.0000 64803.0000 64811.0000 64835.0000 64939.0000 64999.0000 65099.0000 65143.0000 65163.0000 65167.0000 65271.0000 65551.0000 65579.0000 65767.0000 65823.0000 65883.0000 65927.0000 65947.0000 65975.0000 65983.0000 66003.0000 66075.0000 66179.0000 66255.0000 66419.0000 66423.0000 66439.0000 66479.0000 66523.0000 66703.0000 66707.0000 66955.0000 67087.0000 67091.0000 81631.0000 82479.0000 73815.0000 72243.0000 75543.0000 83315.0000 73803.0000 84147.0000 80691.0000 72223.0000 82451.0000 80683.0000 86711.0000 74655.0000 72219.0000 85827.0000 85823.0000 74635.0000 78979.0000 84099.0000 81515.0000 71495.0000 79759.0000 86667.0000 72203.0000 77203.0000 69351.0000 69439.0000 81479.0000 71471.0000 83231.0000 73731.0000 83227.0000 70135.0000 80603.0000 76311.0000 84931.0000 72179.0000 69415.0000 69411.0000 75575.0000 71559.0000 67979.0000 75571.0000 78911.0000 80583.0000 84911.0000 67267.0000 67283.0000 67687.0000 67715.0000 67887.0000 68047.0000 68179.0000 68295.0000 68451.0000 68487.0000 68511.0000 68587.0000 68607.0000 68803.0000 68883.0000 68923.0000 69067.0000 69187.0000 69471.0000 69479.0000 69487.0000 69491.0000 69651.0000 69879.0000 69995.0000 70255.0000 70367.0000 70379.0000 70495.0000 70659.0000 70751.0000 70879.0000 70911.0000 70931.0000 71059.0000 71147.0000 71271.0000 71307.0000 71367.0000 71579.0000 71607.0000 71627.0000 71703.0000 71799.0000 71815.0000 71931.0000 71939.0000 71947.0000 71955.0000 72047.0000 72127.0000 72131.0000 72307.0000 72331.0000 72379.0000 72399.0000 72523.0000 72539.0000 72547.0000 72567.0000 72607.0000 72627.0000 72795.0000 73115.0000 73151.0000 73159.0000 73219.0000 73359.0000 73623.0000 73683.0000 73695.0000 73707.0000 73947.0000 73999.0000 74043.0000 74051.0000 74099.0000 74127.0000 74259.0000 74287.0000 74367.0000 74551.0000 74723.0000 74755.0000 74783.0000 74839.0000 74859.0000 74915.0000 74955.0000 74959.0000 75075.0000 75171.0000 75267.0000 75379.0000 75383.0000 75595.0000 75631.0000 75651.0000 75683.0000 75711.0000 75719.0000 75811.0000 75987.0000 76207.0000 76267.0000 76459.0000 76515.0000 76623.0000 76703.0000 76719.0000 76739.0000 76763.0000 76783.0000 76863.0000 76879.0000 76915.0000 76959.0000 76995.0000 77059.0000 77075.0000 77143.0000 77315.0000 77351.0000 77383.0000 77399.0000 77451.0000 77459.0000 77515.0000 77527.0000 77563.0000 77607.0000 77615.0000 77663.0000 77723.0000 77727.0000 77867.0000 77967.0000 78003.0000 78239.0000 78451.0000 78543.0000 78603.0000 78615.0000 78643.0000 78707.0000 78783.0000 78819.0000 78867.0000 79163.0000 79191.0000 79235.0000 79271.0000 79503.0000 79511.0000 79527.0000 79575.0000 79659.0000 79667.0000 79695.0000 79911.0000 79967.0000 79999.0000 80051.0000 80091.0000 80563.0000 80831.0000 80843.0000 81015.0000 81035.0000 81075.0000 81079.0000 81175.0000 81243.0000 81347.0000 81379.0000 81735.0000 81759.0000 81835.0000 81919.0000 81999.0000 82155.0000 82167.0000 82235.0000 82279.0000 82299.0000 82335.0000 82543.0000 82655.0000 82699.0000 82731.0000 82763.0000 82791.0000 82887.0000 83019.0000 83031.0000 83143.0000 83415.0000 83623.0000 83715.0000 83859.0000 83863.0000 83867.0000 83919.0000 83987.0000 84295.0000 84435.0000 84559.0000 84607.0000 84643.0000 84667.0000 84699.0000 84803.0000 84823.0000 84899.0000 85095.0000 85127.0000 85171.0000 85227.0000 85251.0000 85287.0000 85427.0000 85487.0000 85495.0000 85535.0000 85563.0000 85607.0000 85675.0000 85955.0000 85959.0000 86047.0000 86067.0000 86071.0000 86203.0000 86383.0000 86467.0000 86555.0000 97835.0000 91619.0000 91615.0000 93847.0000 87655.0000 88527.0000 101943.0000 91603.0000 103843.0000 88503.0000 90855.0000 99303.0000 103835.0000 98515.0000 91571.0000 89343.0000 90087.0000 93083.0000 105527.0000 95863.0000 90835.0000 91551.0000 105495.0000 93791.0000 97147.0000 91539.0000 97787.0000 88455.0000 91527.0000 99255.0000 107171.0000 101887.0000 101007.0000 99251.0000 106331.0000 95203.0000 97775.0000 92319.0000 94543.0000 100103.0000 105467.0000 90035.0000 99215.0000 106307.0000 106303.0000 95151.0000 105443.0000 99207.0000 104615.0000 101811.0000 107127.0000 101803.0000 87571.0000 100931.0000 106259.0000 100059.0000 100923.0000 89267.0000 97071.0000 100031.0000 105407.0000 101771.0000 97675.0000 100899.0000 102771.0000 90151.0000 99107.0000 93675.0000 97047.0000 98375.0000 97651.0000 101755.0000 107071.0000 101751.0000 101747.0000 104539.0000 107067.0000 100175.0000 107059.0000 106363.0000 94519.0000 106195.0000 107015.0000 107011.0000 100855.0000 102715.0000 90747.0000 100839.0000 106171.0000 106995.0000 97615.0000 94503.0000 95095.0000 101699.0000 89979.0000 99959.0000 106151.0000 97607.0000 92235.0000 88339.0000 99051.0000 93611.0000 100827.0000 99047.0000 106139.0000 98343.0000 97599.0000 95751.0000 101679.0000 106127.0000 100807.0000 96307.0000 100799.0000 101959.0000 102899.0000 102895.0000 93591.0000 101655.0000 106111.0000 99935.0000 101635.0000 102635.0000 104399.0000 103523.0000 99011.0000 99903.0000 101607.0000 101603.0000 103515.0000 102595.0000 103511.0000 105207.0000 102571.0000 86863.0000 86883.0000 86895.0000 86915.0000 86931.0000 86979.0000 86999.0000 87019.0000 87075.0000 87083.0000 87095.0000 87139.0000 87291.0000 87299.0000 87739.0000 87807.0000 87959.0000 87983.0000 88039.0000 88083.0000 88151.0000 88187.0000 88195.0000 88559.0000 88663.0000 88727.0000 88823.0000 88883.0000 88919.0000 89011.0000 89023.0000 89039.0000 89095.0000 89423.0000 89475.0000 89671.0000 89719.0000 89731.0000 89735.0000 89795.0000 89903.0000 89907.0000 90231.0000 90283.0000 90287.0000 90303.0000 90331.0000 90363.0000 90383.0000 90415.0000 90475.0000 90595.0000 90631.0000 90639.0000 90899.0000 90915.0000 90963.0000 91095.0000 91243.0000 91247.0000 91283.0000 91291.0000 91771.0000 91823.0000 91843.0000 91967.0000 91999.0000 92035.0000 92059.0000 92067.0000 92111.0000 92115.0000 92123.0000 92127.0000 92143.0000 92403.0000 92415.0000 92515.0000 92599.0000 92755.0000 92811.0000 93151.0000 93203.0000 93219.0000 93343.0000 93359.0000 93439.0000 93487.0000 93515.0000 93959.0000 93983.0000 94103.0000 94191.0000 94207.0000 94219.0000 94287.0000 94311.0000 94379.0000 94419.0000 94427.0000 94623.0000 94639.0000 94643.0000 94655.0000 94791.0000 95035.0000 95295.0000 95307.0000 95339.0000 95419.0000 95427.0000 95503.0000 95515.0000 95615.0000 95675.0000 95947.0000 96019.0000 96055.0000 96239.0000 96259.0000 96555.0000 96571.0000 96635.0000 96643.0000 96667.0000 96679.0000 96695.0000 96747.0000 96755.0000 96771.0000 96891.0000 96943.0000 97291.0000 97403.0000 97455.0000 97487.0000 97491.0000 97871.0000 97887.0000 97919.0000 97923.0000 97927.0000 97939.0000 98015.0000 98019.0000 98191.0000 98271.0000 98599.0000 98615.0000 98671.0000 98675.0000 98719.0000 98767.0000 98847.0000 98879.0000 98935.0000 98943.0000 98995.0000 99323.0000 99327.0000 99407.0000 99611.0000 99615.0000 99647.0000 99763.0000 100215.0000 100251.0000 100295.0000 100303.0000 100319.0000 100331.0000 100383.0000 100427.0000 100463.0000 100479.0000 100543.0000 100619.0000 100703.0000 100707.0000 100735.0000 101067.0000 101083.0000 101099.0000 101127.0000 101167.0000 101195.0000 101199.0000 101203.0000 101279.0000 101403.0000 101495.0000 101523.0000 101991.0000 102159.0000 102207.0000 102287.0000 102335.0000 102367.0000 102379.0000 102399.0000 102411.0000 102531.0000 102535.0000 102995.0000 103019.0000 103031.0000 103039.0000 103075.0000 103175.0000 103331.0000 103407.0000 103427.0000 103435.0000 103475.0000 103487.0000 103955.0000 103959.0000 104007.0000 104047.0000 104059.0000 104063.0000 104091.0000 104115.0000 104159.0000 104183.0000 104215.0000 104227.0000 104303.0000 104315.0000 104327.0000 104763.0000 104843.0000 104891.0000 104903.0000 104915.0000 104923.0000 104935.0000 104943.0000 104979.0000 105079.0000 105163.0000 105171.0000 105183.0000 105603.0000 105639.0000 105775.0000 105795.0000 105807.0000 105843.0000 105911.0000 105959.0000 105999.0000 106023.0000 106419.0000 106487.0000 106531.0000 106583.0000 106639.0000 106667.0000 106683.0000 106723.0000 106779.0000 106835.0000 106851.0000 126255.0000 120087.0000 115571.0000 124599.0000 124595.0000 125427.0000 117075.0000 118583.0000 110443.0000 117823.0000 121591.0000 121587.0000 113123.0000 120071.0000 121423.0000 125419.0000 116807.0000 118571.0000 125263.0000 117819.0000 126927.0000 119863.0000 109655.0000 116319.0000 112943.0000 122951.0000 117811.0000 113115.0000 117623.0000 117051.0000 121583.0000 120615.0000 118559.0000 114803.0000 123827.0000 123079.0000 108019.0000 123667.0000 117043.0000 115311.0000 108771.0000 120599.0000 125207.0000 110575.0000 111207.0000 109587.0000 119091.0000 112027.0000 111431.0000 111427.0000 108739.0000 122139.0000 126063.0000 110367.0000 109559.0000 126051.0000 112863.0000 116047.0000 126039.0000 108719.0000 108903.0000 115271.0000 116747.0000 119815.0000 121359.0000 113739.0000 126035.0000 124379.0000 119807.0000 126855.0000 108711.0000 123595.0000 110339.0000 108703.0000 119071.0000 120039.0000 126023.0000 111139.0000 112811.0000 111951.0000 112803.0000 118255.0000 109511.0000 117011.0000 111947.0000 122099.0000 120551.0000 122899.0000 108659.0000 114775.0000 109731.0000 123059.0000 111939.0000 111415.0000 112259.0000 113939.0000 110311.0000 124359.0000 116019.0000 125135.0000 111103.0000 111923.0000 111919.0000 111911.0000 116015.0000 123815.0000 115491.0000 112767.0000 111903.0000 112759.0000 107835.0000 125383.0000 112751.0000 120015.0000 124351.0000 116259.0000 126831.0000 118519.0000 122875.0000 121303.0000 116999.0000 107815.0000 120519.0000 126819.0000 125099.0000 111871.0000 125975.0000 120011.0000 119003.0000 126815.0000 111067.0000 114407.0000 119999.0000 123519.0000 118179.0000 124311.0000 114759.0000 118167.0000 111051.0000 115139.0000 116611.0000 116599.0000 110227.0000 115931.0000 117775.0000 110531.0000 124287.0000 125959.0000 115923.0000 114755.0000 115919.0000 125063.0000 119699.0000 116983.0000 120479.0000 114371.0000 121203.0000 117467.0000 115463.0000 120467.0000 112235.0000 115119.0000 122819.0000 125051.0000 121187.0000 120463.0000 108571.0000 127023.0000 111023.0000 118131.0000 113603.0000 110191.0000 124547.0000 116235.0000 121167.0000 118935.0000 119659.0000 123451.0000 112655.0000 122775.0000 117423.0000 118927.0000 119647.0000 116519.0000 117415.0000 118115.0000 112647.0000 121143.0000 121127.0000 124231.0000 123435.0000 118095.0000 109383.0000 111003.0000 122731.0000 124199.0000 119615.0000 109379.0000 118079.0000 118075.0000 126675.0000 118879.0000 114323.0000 118871.0000 118867.0000 123399.0000 124183.0000 124927.0000 124179.0000 118859.0000 112591.0000 109351.0000 112587.0000 122671.0000 115831.0000 121907.0000 118847.0000 118843.0000 110139.0000 114291.0000 110967.0000 112571.0000 122639.0000 118039.0000 111719.0000 126603.0000 112551.0000 115027.0000 120335.0000 120331.0000 122635.0000 118835.0000 124887.0000 109327.0000 111691.0000 114275.0000 114271.0000 121079.0000 125775.0000 125771.0000 125767.0000 111675.0000 119515.0000 118803.0000 118011.0000 122615.0000 126559.0000 125743.0000 120291.0000 125739.0000 124535.0000 126535.0000 118779.0000 124087.0000 120747.0000 119267.0000 125347.0000 120271.0000 125343.0000 123023.0000 121507.0000 108855.0000 119251.0000 110511.0000 119239.0000 109707.0000 122263.0000 122259.0000 118459.0000 117727.0000 120727.0000 116187.0000 119947.0000 113883.0000 118447.0000 113035.0000 114687.0000 113031.0000 123755.0000 117719.0000 115399.0000 108823.0000 116919.0000 118423.0000 109679.0000 122999.0000 118419.0000 124495.0000 116143.0000 126155.0000 123747.0000 119191.0000 112127.0000 119179.0000 107667.0000 126975.0000 121459.0000 116115.0000 112119.0000 111295.0000 122223.0000 116859.0000 121455.0000 120679.0000 116099.0000 123731.0000 120671.0000 119147.0000 125299.0000 107263.0000 107295.0000 107299.0000 107339.0000 107391.0000 107423.0000 107479.0000 107483.0000 107555.0000 107619.0000 108091.0000 108099.0000 108195.0000 108203.0000 108231.0000 108251.0000 108255.0000 108347.0000 108367.0000 108371.0000 108451.0000 108459.0000 108487.0000 109031.0000 109035.0000 109119.0000 109151.0000 109183.0000 109191.0000 109275.0000 109287.0000 109791.0000 109855.0000 109911.0000 109983.0000 110667.0000 110687.0000 110691