<?xml version="1.0"?>
<VTKFile type="RectilinearGrid" version="1.0" byte_order="LittleEndian" header_type="UInt64">
<RectilinearGrid WholeExtent="25 50 25 50 0 15">
<Piece Extent="25 50 25 50 0 15">
<Coordinates>
<DataArray type="Float64" Name="Array X-Axis" format="ascii" RangeMin="15.0" RangeMax="30.0">
15.0 15.6 16.2 16.8 17.4 18.0 18.6 19.2 19.8 20.4 21.0 21.6 22.2 22.8 23.4 24.0 24.6 25.2 25.8 26.4 27.0 27.6 28.2 28.8 29.4 30.0 
</DataArray>
<DataArray type="Float64" Name="Array Y-Axis" format="ascii" RangeMin="15.0" RangeMax="30.0">
15.0 15.6 16.2 16.8 17.4 18.0 18.6 19.2 19.8 20.4 21.0 21.6 22.2 22.8 23.4 24.0 24.6 25.2 25.8 26.4 27.0 27.6 28.2 28.8 29.4 30.0 
</DataArray>
<DataArray type="Float64" Name="Array Z-Axis" format="ascii" RangeMin="0.0" RangeMax="9.0">
0.0 0.6 1.2 1.8 2.4 3.0 3.6 4.2 4.8 5.4 6.0 6.6 7.2 7.8 8.4 9.0 
</DataArray>
</Coordinates>
<PointData>
<DataArray Name="TEMPERATURE" NumberOfComponents="1" type="Float64" format="ascii">
22.7 24.1 24.7 25.6 27.1 28.1 28.1 27.0 25.3 24.3 23.6 23.0 22.6 22.3 22.0 21.7 21.4 21.2 21.0 20.9 20.7 20.5 20.4 20.3 20.1 20.1 23.1 23.6 24.1 24.7 25.5 26.2 26.6 26.1 24.8 23.9 23.3 22.7 22.3 22.0 21.7 21.5 21.3 21.1 20.9 20.8 20.6 20.5 20.4 20.2 20.1 20.1 22.8 23.1 23.5 24.1 24.7 25.1 25.5 25.2 24.3 23.6 23.1 22.6 22.1 21.8 21.6 21.4 21.2 21.0 20.8 20.7 20.5 20.4 20.3 20.2 20.1 20.1 22.5 22.7 23.0 23.6 24.2 24.3 24.3 24.3 23.7 23.2 22.9 22.4 22.1 21.7 21.5 21.3 21.1 20.9 20.8 20.6 20.5 20.4 20.3 20.2 20.1 20.0 22.2 22.4 22.6 23.1 23.5 23.6 23.6 23.6 23.3 22.9 22.6 22.3 22.0 21.7 21.4 21.2 21.0 20.9 20.8 20.6 20.5 20.4 20.3 20.2 20.1 20.0 21.9 22.1 22.3 22.6 22.9 23.1 23.2 23.1 22.8 22.6 22.4 22.2 21.9 21.6 21.3 21.1 21.0 20.8 20.7 20.6 20.5 20.4 20.3 20.2 20.1 20.0 21.7 21.8 22.0 22.2 22.5 22.6 22.8 22.7 22.5 22.3 22.1 22.0 21.8 21.5 21.3 21.1 20.9 20.8 20.7 20.6 20.5 20.4 20.3 20.2 20.1 20.0 21.5 21.6 21.7 22.0 22.2 22.3 22.3 22.3 22.2 22.0 21.9 21.8 21.7 21.5 21.3 21.1 20.9 20.7 20.6 20.5 20.4 20.3 20.2 20.2 20.1 20.0 21.3 21.4 21.5 21.7 21.9 21.9 21.9 22.0 22.0 21.8 21.7 21.6 21.5 21.4 21.2 21.0 20.8 20.7 20.6 20.5 20.4 20.3 20.2 20.1 20.1 20.0 21.2 21.2 21.3 21.5 21.6 21.7 21.7 21.8 21.8 21.6 21.5 21.4 21.4 21.3 21.2 21.0 20.8 20.7 20.5 20.5 20.4 20.3 20.2 20.1 20.1 20.0 21.0 21.1 21.2 21.3 21.4 21.5 21.5 21.6 21.6 21.4 21.3 21.3 21.2 21.2 21.1 21.0 20.8 20.7 20.5 20.4 20.4 20.3 20.2 20.1 20.1 20.0 20.9 21.0 21.0 21.2 21.3 21.3 21.3 21.4 21.4 21.3 21.2 21.1 21.1 21.1 21.0 20.9 20.8 20.7 20.5 20.4 20.3 20.3 20.2 20.1 20.1 20.0 20.8 20.8 20.9 21.1 21.1 21.1 21.1 21.2 21.3 21.2 21.1 21.0 21.0 21.0 20.9 20.9 20.8 20.6 20.5 20.4 20.3 20.2 20.2 20.1 20.1 20.0 20.7 20.8 20.8 21.0 21.0 21.0 20.9 21.0 21.1 21.1 21.0 20.9 20.9 20.9 20.8 20.8 20.7 20.6 20.5 20.4 20.3 20.2 20.2 20.1 20.1 20.0 20.6 20.7 20.7 20.8 20.9 20.8 20.8 20.9 21.0 21.0 20.9 20.8 20.8 20.8 20.7 20.7 20.7 20.6 20.5 20.4 20.3 20.2 20.2 20.1 20.0 20.0 20.6 20.6 20.7 20.7 20.7 20.7 20.6 20.7 20.8 20.8 20.8 20.7 20.7 20.7 20.7 20.6 20.6 20.6 20.5 20.4 20.3 20.2 20.2 20.1 20.0 20.0 20.5 20.5 20.6 20.6 20.6 20.6 20.5 20.6 20.7 20.7 20.7 20.6 20.6 20.6 20.6 20.6 20.6 20.5 20.5 20.4 20.3 20.2 20.2 20.1 20.0 20.0 20.4 20.4 20.5 20.5 20.5 20.4 20.4 20.5 20.5 20.6 20.5 20.5 20.5 20.5 20.5 20.5 20.5 20.5 20.5 20.4 20.3 20.2 20.2 20.1 20.0 20.0 20.3 20.4 20.4 20.4 20.4 20.4 20.3 20.4 20.4 20.5 20.4 20.4 20.4 20.4 20.4 20.4 20.4 20.4 20.4 20.4 20.3 20.2 20.2 20.1 20.0 20.0 20.3 20.3 20.3 20.3 20.3 20.3 20.3 20.3 20.3 20.4 20.4 20.3 20.3 20.3 20.3 20.3 20.3 20.4 20.4 20.4 20.3 20.2 20.2 20.1 20.0 20.0 20.2 20.2 20.3 20.3 20.2 20.2 20.2 20.2 20.3 20.3 20.3 20.3 20.2 20.2 20.2 20.2 20.3 20.3 20.3 20.3 20.3 20.2 20.2 20.1 20.0 20.0 20.2 20.2 20.2 20.2 20.2 20.2 20.2 20.2 20.2 20.2 20.2 20.2 20.2 20.2 20.2 20.2 20.2 20.2 20.2 20.2 20.2 20.2 20.2 20.1 20.0 20.0 20.1 20.1 20.1 20.1 20.1 20.1 20.1 20.1 20.1 20.2 20.2 20.1 20.1 20.1 20.1 20.1 20.1 20.1 20.1 20.2 20.2 20.2 20.2 20.1 20.1 20.0 20.1 20.1 20.1 20.1 20.1 20.1 20.1 20.1 20.1 20.1 20.1 20.1 20.1 20.1 20.1 20.1 20.1 20.1 20.1 20.1 20.1 20.1 20.1 20.1 20.1 20.0 20.0 20.0 20.0 20.0 20.0 20.0 20.0 20.0 20.0 20.0 20.0 20.0 20.0 20.0 20.0 20.0 20.0 20.0 20.0 20.0 20.0 20.0 20.1 20.1 20.1 20.0 20.0 20.0 20.0 20.0 20.0 20.0 20.0 20.0 20.0 20.0 20.0 20.0 20.0 20.0 20.0 20.0 20.0 20.0 20.0 20.0 20.0 20.0 20.0 20.0 20.0 20.0 22.8 24.3 25.2 26.4 28.4 29.9 29.4 27.6 25.7 24.7 23.9 23.2 22.7 22.3 22.0 21.7 21.4 21.2 21.0 20.8 20.7 20.5 20.4 20.3 20.1 20.1 23.3 23.7 24.3 25.1 25.9 26.6 27.1 26.5 25.1 24.2 23.5 22.9 22.4 22.0 21.8 21.5 21.3 21.1 20.9 20.7 20.6 20.4 20.3 20.2 20.1 20.1 22.9 23.2 23.6 24.3 25.0 25.5 25.9 25.4 24.5 23.8 23.2 22.7 22.3 21.9 21.6 21.4 21.2 21.0 20.8 20.7 20.5 20.4 20.3 20.2 20.1 20.0 22.5 22.8 23.2 23.8 24.4 24.6 24.6 24.4 23.9 23.4 23.0 22.5 22.1 21.8 21.5 21.3 21.1 20.9 20.8 20.6 20.5 20.4 20.3 20.2 20.1 20.0 22.2 22.4 22.7 23.2 23.6 23.8 23.8 23.7 23.3 23.0 22.7 22.4 22.0 21.7 21.4 21.2 21.0 20.9 20.7 20.6 20.5 20.4 20.3 20.2 20.1 20.0 21.9 22.1 22.3 22.7 23.0 23.1 23.3 23.2 22.9 22.6 22.4 22.2 21.9 21.6 21.4 21.1 20.9 20.8 20.7 20.6 20.5 20.3 20.2 20.2 20.1 20.0 21.7 21.8 22.0 22.3 22.5 22.7 22.9 22.8 22.5 22.3 22.2 22.0 21.8 21.6 21.3 21.1 20.9 20.8 20.6 20.5 20.4 20.3 20.2 20.2 20.1 20.0 21.5 21.6 21.7 22.0 22.2 22.3 22.4 22.4 22.2 22.0 21.9 21.8 21.7 21.5 21.3 21.1 20.9 20.7 20.6 20.5 20.4 20.3 20.2 20.1 20.1 20.0 21.3 21.4 21.5 21.8 21.9 22.0 22.0 22.0 22.0 21.8 21.7 21.6 21.5 21.4 21.2 21.0 20.8 20.7 20.5 20.5 20.4 20.3 20.2 20.1 20.1 20.0 21.1 21.2 21.3 21.5 21.6 21.7 21.7 21.8 21.8 21.6 21.5 21.4 21.4 21.3 21.1 21.0 20.8 20.7 20.5 20.4 20.3 20.3 20.2 20.1 20.1 20.0 21.0 21.0 21.2 21.3 21.4 21.5 21.5 21.6 21.6 21.4 21.3 21.2 21.2 21.2 21.1 20.9 20.8 20.6 20.5 20.4 20.3 20.3 20.2 20.1 20.1 20.0 20.9 20.9 21.0 21.2 21.3 21.3 21.3 21.4 21.4 21.3 21.1 21.1 21.1 21.0 21.0 20.9 20.8 20.6 20.5 20.4 20.3 20.2 20.2 20.1 20.1 20.0 20.8 20.8 20.9 21.0 21.1 21.1 21.1 21.2 21.2 21.2 21.0 21.0 20.9 20.9 20.9 20.8 20.7 20.6 20.5 20.4 20.3 20.2 20.2 20.1 20.0 20.0 20.7 20.7 20.8 20.9 21.0 20.9 20.9 21.0 21.1 21.0 20.9 20.8 20.8 20.8 20.8 20.8 20.7 20.6 20.5 20.4 20.3 20.2 20.2 20.1 20.0 20.0 20.6 20.6 20.7 20.8 20.8 20.8 20.8 20.8 20.9 20.9 20.8 20.7 20.7 20.7 20.7 20.7 20.6 20.6 20.5 20.4 20.3 20.2 20.1 20.1 20.0 20.0 20.5 20.5 20.6 20.7 20.7 20.7 20.6 20.7 20.8 20.8 20.7 20.7 20.6 20.6 20.6 20.6 20.6 20.5 20.5 20.4 20.3 20.2 20.1 20.1 20.0 20.0 20.4 20.5 20.5 20.6 20.6 20.5 20.5 20.6 20.6 20.7 20.6 20.6 20.5 20.5 20.5 20.5 20.5 20.5 20.4 20.4 20.3 20.2 20.1 20.1 20.0 20.0 20.4 20.4 20.4 20.5 20.5 20.4 20.4 20.4 20.5 20.5 20.5 20.5 20.4 20.4 20.4 20.5 20.5 20.5 20.4 20.4 20.3 20.2 20.1 20.1 20.0 20.0 20.3 20.3 20.3 20.4 20.4 20.3 20.3 20.3 20.4 20.4 20.4 20.4 20.4 20.4 20.4 20.4 20.4 20.4 20.4 20.4 20.3 20.2 20.1 20.1 20.0 20.0 20.2 20.3 20.3 20.3 20.3 20.3 20.3 20.3 20.3 20.3 20.3 20.3 20.3 20.3 20.3 20.3 20.3 20.3 20.3 20.3 20.3 20.2 20.2 20.1 20.0 20.0 20.2 20.2 20.2 20.2 20.2 20.2 20.2 20.2 20.2 20.3 20.3 20.2 20.2 20.2 20.2 20.2 20.2 20.3 20.3 20.3 20.3 20.2 20.2 20.1 20.0 20.0 20.1 20.2 20.2 20.2 20.2 20.2 20.2 20.2 20.2 20.2 20.2 20.2 20.2 20.1 20.1 20.2 20.2 20.2 20.2 20.2 20.2 20.2 20.2 20.1 20.0 20.0 20.1 20.1 20.1 20.1 20.1 20.1 20.1 20.1 20.1 20.1 20.1 20.1 20.1 20.1 20.1 20.1 20.1 20.1 20.1 20.1 20.2 20.2 20.2 20.1 20.1 20.0 20.1 20.1 20.1 20.1 20.1 20.1 20.1 20.1 20.1 20.1 20.1 20.1 20.1 20.1 20.1 20.1 20.1 20.1 20.1 20.1 20.1 20.1 20.1 20.1 20.1 20.0 20.0 20.0 20.0 20.0 20.0 20.0 20.0 20.0 20.0 20.0 20.0 20.0 20.0 20.0 20.0 20.0 20.0 20.0 20.0 20.0 20.0 20.0 20.1 20.1 20.1 20.0 20.0 20.0 20.0 20.0 20.0 20.0 20.0 20.0 20.0 20.0 20.0 20.0 20.0 20.0 20.0 20.0 20.0 20.0 20.0 20.0 20.0 20.0 20.0 20.0 20.0 20.0 23.0 24.7 26.0 29.8 33.2 35.1 35.2 30.8 26.8 25.4 24.5 23.6 23.0 22.5 22.1 21.7 21.4 21.2 21.0 20.8 20.6 20.5 20.3 20.2 20.1 20.1 23.5 24.1 24.7 25.8 26.9 27.7 28.3 27.2 25.6 24.7 23.9 23.2 22.7 22.2 21.8 21.5 21.3 21.1 20.9 20.7 20.6 20.4 20.3 20.2 20.1 20.0 23.1 23.5 24.0 24.6 25.4 26.2 26.6 25.9 24.8 24.1 23.5 22.9 22.5 22.0 21.7 21.4 21.2 21.0 20.8 20.6 20.5 20.4 20.3 20.2 20.1 20.0 22.7 23.0 23.4 24.0 24.6 25.1 25.2 24.8 24.1 23.6 23.1 22.7 22.3 21.9 21.6 21.3 21.1 20.9 20.7 20.6 20.5 20.3 20.2 20.2 20.1 20.0 22.3 22.6 22.8 23.4 24.0 24.1 24.1 23.9 23.5 23.1 22.8 22.5 22.1 21.8 21.5 21.2 21.0 20.8 20.7 20.6 20.4 20.3 20.2 20.1 20.1 20.0 22.0 22.2 22.4 22.9 23.2 23.4 23.5 23.3 23.0 22.7 22.5 22.2 22.0 21.7 21.4 21.2 20.9 20.8 20.6 20.5 20.4 20.3 20.2 20.1 20.1 20.0 21.7 21.9 22.1 22.4 22.7 22.9 23.0 22.9 22.6 22.3 22.2 22.0 21.8 21.6 21.3 21.1 20.9 20.7 20.6 20.5 20.4 20.3 20.2 20.1 20.1 20.0 21.5 21.7 22.0 22.3 22.4 22.4 22.5 22.4 22.2 22.0 21.9 21.8 21.6 21.4 21.2 21.0 20.8 20.7 20.5 20.4 20.4 20.3 20.2 20.1 20.1 20.0 21.4 21.7 22.0 22.1 22.1 22.0 22.1 22.1 22.0 21.8 21.6 21.5 21.4 21.3 21.2 21.0 20.8 20.6 20.5 20.4 20.3 20.2 20.2 20.1 20.1 20.0 21.2 21.6 21.9 22.0 21.8 21.7 21.7 21.8 21.7 21.5 21.4 21.3 21.3 21.2 21.1 20.9 20.8 20.6 20.5 20.4 20.3 20.2 20.2 20.1 20.0 20.0 21.1 21.3 21.6 21.7 21.5 21.5 21.5 21.6 21.5 21.4 21.2 21.2 21.1 21.1 21.0 20.9 20.7 20.6 20.5 20.4 20.3 20.2 20.2 20.1 20.0 20.0 20.9 21.2 21.5 21.4 21.3 21.2 21.3 21.3 21.3 21.2 21.1 21.0 21.0 20.9 20.9 20.8 20.7 20.6 20.5 20.4 20.3 20.2 20.1 20.1 20.0 20.0 20.8 21.1 21.2 21.2 21.1 21.1 21.1 21.1 21.2 21.1 20.9 20.9 20.8 20.8 20.8 20.7 20.7 20.6 20.5 20.4 20.3 20.2 20.1 20.1 20.0 20.0 20.7 20.9 21.0 20.9 20.9 20.9 20.9 21.0 21.0 21.0 20.8 20.8 20.7 20.7 20.7 20.7 20.6 20.5 20.4 20.3 20.3 20.2 20.1 20.1 20.0 20.0 20.6 20.7 20.7 20.8 20.8 20.8 20.7 20.8 20.9 20.8 20.7 20.7 20.6 20.6 20.6 20.6 20.6 20.5 20.4 20.3 20.3 20.2 20.1 20.1 20.0 20.0 20.5 20.5 20.6 20.6 20.7 20.6 20.6 20.6 20.7 20.7 20.7 20.6 20.5 20.5 20.5 20.5 20.5 20.5 20.4 20.3 20.3 20.2 20.1 20.1 20.0 20.0 20.4 20.4 20.4 20.5 20.5 20.5 20.5 20.5 20.6 20.6 20.6 20.5 20.5 20.5 20.5 20.5 20.4 20.4 20.4 20.3 20.2 20.2 20.1 20.1 20.0 20.0 20.3 20.3 20.4 20.4 20.4 20.4 20.4 20.4 20.5 20.5 20.5 20.4 20.4 20.4 20.4 20.4 20.4 20.4 20.3 20.3 20.2 20.2 20.1 20.1 20.0 20.0 20.2 20.2 20.3 20.3 20.3 20.3 20.3 20.3 20.4 20.4 20.4 20.3 20.3 20.3 20.3 20.3 20.3 20.3 20.3 20.3 20.2 20.2 20.1 20.1 20.0 20.0 20.2 20.2 20.2 20.3 20.3 20.2 20.2 20.2 20.3 20.3 20.3 20.3 20.3 20.2 20.2 20.3 20.3 20.3 20.3 20.3 20.2 20.2 20.1 20.1 20.0 20.0 20.1 20.2 20.2 20.2 20.2 20.2 20.2 20.2 20.2 20.2 20.2 20.2 20.2 20.2 20.2 20.2 20.2 20.2 20.2 20.2 20.2 20.2 20.1 20.1 20.0 20.0 20.1 20.1 20.1 20.1 20.1 20.1 20.1 20.1 20.2 20.2 20.2 20.1 20.1 20.1 20.1 20.1 20.1 20.2 20.2 20.2 20.2 20.2 20.1 20.1 20.0 20.0 20.1 20.1 20.1 20.1 20.1 20.1 20.1 20.1 20.1 20.1 20.1 20.1 20.1 20.1 20.1 20.1 20.1 20.1 20.1 20.1 20.1 20.1 20.1 20.1 20.0 20.0 20.0 20.1 20.1 20.1 20.1 20.1 20.1 20.1 20.1 20.1 20.1 20.1 20.1 20.1 20.1 20.1 20.1 20.1 20.1 20.1 20.1 20.1 20.1 20.1 20.1 20.0 20.0 20.0 20.0 20.0 20.0 20.0 20.0 20.0 20.0 20.0 20.0 20.0 20.0 20.0 20.0 20.0 20.0 20.0 20.0 20.0 20.0 20.0 20.0 20.1 20.1 20.0 20.0 20.0 20.0 20.0 20.0 20.0 20.0 20.0 20.0 20.0 20.0 20.0 20.0 20.0 20.0 20.0 20.0 20.0 20.0 20.0 20.0 20.0 20.0 20.0 20.0 20.0 23.5 25.4 26.9 32.4 35.9 39.4 45.5 39.3 28.8 26.0 25.0 24.0 23.3 22.7 22.2 21.9 21.5 21.3 21.0 20.8 20.7 20.5 20.3 20.2 20.1 20.1 23.7 24.4 25.2 26.4 27.7 28.6 29.2 27.9 26.0 25.0 24.2 23.5 22.9 22.4 22.0 21.7 21.4 21.1 20.9 20.7 20.6 20.4 20.3 20.2 20.1 20.0 23.2 23.8 24.3 24.9 25.7 26.6 27.0 26.2 25.0 24.4 23.7 23.1 22.6 22.2 21.8 21.5 21.2 21.0 20.8 20.7 20.5 20.4 20.3 20.2 20.1 20.0 22.8 23.2 23.6 24.1 24.8 25.4 25.7 25.1 24.3 23.8 23.3 22.8 22.4 22.0 21.7 21.4 21.1 20.9 20.8 20.6 20.5 20.4 20.2 20.2 20.1 20.0 22.4 22.7 23.0 23.6 24.2 24.4 24.4 24.1 23.6 23.2 22.9 22.5 22.2 21.9 21.6 21.3 21.1 20.9 20.7 20.6 20.4 20.3 20.2 20.1 20.1 20.0 22.1 22.4 22.7 23.2 23.5 23.6 23.6 23.4 23.1 22.8 22.5 22.3 22.0 21.7 21.5 21.2 21.0 20.8 20.7 20.6 20.4 20.3 20.2 20.1 20.1 20.0 21.9 22.2 22.6 22.8 22.9 23.0 23.1 22.9 22.6 22.4 22.2 22.0 21.8 21.6 21.3 21.1 20.9 20.8 20.6 20.5 20.4 20.3 20.2 20.1 20.1 20.0 21.8 22.3 22.7 22.7 22.5 22.5 22.6 22.5 22.3 22.1 21.9 21.7 21.6 21.4 21.2 21.0 20.9 20.7 20.6 20.5 20.4 20.3 20.2 20.1 20.1 20.0 21.8 22.5 22.9 22.7 22.2 22.1 22.2 22.1 22.0 21.8 21.6 21.5 21.4 21.3 21.1 21.0 20.8 20.7 20.5 20.4 20.3 20.3 20.2 20.1 20.1 20.0 21.6 21.9 22.3 22.4 22.0 21.8 21.8 21.8 21.7 21.5 21.4 21.3 21.2 21.1 21.0 20.9 20.8 20.6 20.5 20.4 20.3 20.2 20.2 20.1 20.0 20.0 21.2 21.2 21.5 21.9 21.6 21.5 21.5 21.6 21.5 21.3 21.2 21.1 21.1 21.0 20.9 20.8 20.7 20.6 20.5 20.4 20.3 20.2 20.1 20.1 20.0 20.0 21.0 21.0 21.3 21.6 21.3 21.3 21.3 21.3 21.3 21.2 21.1 21.0 20.9 20.9 20.8 20.8 20.7 20.6 20.5 20.3 20.3 20.2 20.1 20.1 20.0 20.0 20.9 20.9 21.1 21.3 21.1 21.1 21.1 21.1 21.1 21.0 20.9 20.9 20.8 20.8 20.7 20.7 20.6 20.5 20.4 20.3 20.3 20.2 20.1 20.1 20.0 20.0 20.9 20.8 20.9 21.0 20.9 20.9 20.9 20.9 21.0 20.9 20.8 20.7 20.7 20.7 20.6 20.6 20.6 20.5 20.4 20.3 20.2 20.2 20.1 20.1 20.0 20.0 20.7 20.7 20.6 20.8 20.8 20.8 20.7 20.8 20.8 20.8 20.7 20.6 20.6 20.6 20.6 20.5 20.5 20.5 20.4 20.3 20.2 20.2 20.1 20.1 20.0 20.0 20.6 20.5 20.5 20.7 20.6 20.6 20.6 20.6 20.7 20.7 20.6 20.6 20.5 20.5 20.5 20.5 20.4 20.4 20.4 20.3 20.2 20.2 20.1 20.1 20.0 20.0 20.4 20.4 20.4 20.5 20.5 20.5 20.5 20.5 20.6 20.6 20.5 20.5 20.4 20.4 20.4 20.4 20.4 20.4 20.3 20.3 20.2 20.2 20.1 20.1 20.0 20.0 20.2 20.3 20.3 20.4 20.4 20.4 20.4 20.4 20.5 20.5 20.4 20.4 20.4 20.4 20.4 20.4 20.3 20.3 20.3 20.3 20.2 20.2 20.1 20.1 20.0 20.0 20.2 20.2 20.3 20.3 20.3 20.3 20.3 20.3 20.4 20.4 20.4 20.3 20.3 20.3 20.3 20.3 20.3 20.3 20.3 20.2 20.2 20.2 20.1 20.1 20.0 20.0 20.2 20.2 20.2 20.3 20.3 20.2 20.2 20.2 20.3 20.3 20.3 20.3 20.2 20.2 20.2 20.2 20.2 20.2 20.2 20.2 20.2 20.2 20.1 20.1 20.0 20.0 20.1 20.1 20.2 20.2 20.2 20.2 20.2 20.2 20.2 20.2 20.2 20.2 20.2 20.2 20.2 20.2 20.2 20.2 20.2 20.2 20.2 20.2 20.1 20.1 20.0 20.0 20.1 20.1 20.1 20.1 20.1 20.1 20.1 20.1 20.2 20.2 20.1 20.1 20.1 20.1 20.1 20.1 20.1 20.1 20.1 20.2 20.2 20.1 20.1 20.1 20.0 20.0 20.1 20.1 20.1 20.1 20.1 20.1 20.1 20.1 20.1 20.1 20.1 20.1 20.1 20.1 20.1 20.1 20.1 20.1 20.1 20.1 20.1 20.1 20.1 20.1 20.0 20.0 20.0 20.0 20.1 20.1 20.1 20.1 20.1 20.1 20.1 20.1 20.1 20.1 20.1 20.0 20.0 20.0 20.0 20.1 20.1 20.1 20.1 20.1 20.1 20.1 20.0 20.0 20.0 20.0 20.0 20.0 20.0 20.0 20.0 20.0 20.0 20.0 20.0 20.0 20.0 20.0 20.0 20.0 20.0 20.0 20.0 20.0 20.0 20.0 20.0 20.0 20.0 20.0 20.0 20.0 20.0 20.0 20.0 20.0 20.0 20.0 20.0 20.0 20.0 20.0 20.0 20.0 20.0 20.0 20.0 20.0 20.0 20.0 20.0 20.0 20.0 20.0 20.0 20.0 23.7 26.1 27.7 31.4 34.2 38.2 48.8 44.8 30.5 26.3 25.2 24.2 23.5 22.9 22.4 22.0 21.7 21.4 21.2 20.9 20.7 20.6 20.4 20.3 20.1 20.1 23.9 24.7 25.5 26.5 27.9 28.8 29.4 28.4 26.3 25.2 24.4 23.7 23.1 22.6 22.2 21.8 21.5 21.3 21.0 20.9 20.7 20.5 20.4 20.2 20.1 20.1 23.4 23.9 24.5 25.1 25.9 26.7 27.0 26.3 25.2 24.5 23.9 23.3 22.8 22.4 22.0 21.7 21.4 21.2 21.0 20.8 20.6 20.4 20.3 20.2 20.1 20.0 23.0 23.3 23.7 24.3 24.9 25.5 25.8 25.2 24.4 23.9 23.4 23.0 22.5 22.2 21.9 21.6 21.3 21.1 20.9 20.7 20.6 20.4 20.3 20.2 20.1 20.0 22.6 22.9 23.3 23.9 24.4 24.6 24.7 24.3 23.8 23.3 23.0 22.6 22.3 22.0 21.7 21.5 21.2 21.0 20.8 20.7 20.5 20.4 20.3 20.2 20.1 20.0 22.3 22.7 23.1 23.6 23.8 23.8 23.7 23.5 23.2 22.9 22.6 22.3 22.1 21.8 21.6 21.4 21.2 21.0 20.8 20.7 20.5 20.4 20.3 20.2 20.1 20.0 22.2 22.6 23.2 23.4 23.2 23.1 23.1 23.0 22.8 22.5 22.3 22.1 21.9 21.7 21.5 21.3 21.1 20.9 20.8 20.6 20.5 20.4 20.3 20.2 20.1 20.0 22.3 22.9 23.4 23.3 22.8 22.6 22.7 22.6 22.4 22.2 22.0 21.8 21.7 21.5 21.3 21.1 21.0 20.8 20.7 20.6 20.5 20.3 20.2 20.1 20.1 20.0 22.5 23.3 23.7 23.1 22.4 22.2 22.3 22.2 22.1 21.9 21.7 21.6 21.5 21.3 21.2 21.0 20.9 20.8 20.6 20.5 20.4 20.3 20.2 20.1 20.1 20.0 22.1 22.5 22.8 22.6 22.1 21.9 21.9 21.9 21.8 21.7 21.5 21.4 21.3 21.2 21.1 21.0 20.8 20.7 20.6 20.5 20.4 20.3 20.2 20.1 20.1 20.0 21.4 21.4 21.7 22.0 21.8 21.6 21.6 21.6 21.6 21.4 21.3 21.2 21.2 21.1 21.0 20.9 20.8 20.6 20.5 20.4 20.3 20.2 20.2 20.1 20.1 20.0 21.2 21.2 21.3 21.6 21.5 21.4 21.4 21.4 21.4 21.3 21.2 21.1 21.0 20.9 20.9 20.8 20.7 20.6 20.5 20.4 20.3 20.2 20.2 20.1 20.0 20.0 21.1 21.0 21.0 21.3 21.2 21.1 21.2 21.2 21.2 21.1 21.0 20.9 20.9 20.8 20.8 20.7 20.6 20.6 20.5 20.4 20.3 20.2 20.1 20.1 20.0 20.0 21.0 20.8 20.8 21.1 21.0 21.0 21.0 21.0 21.0 21.0 20.9 20.8 20.8 20.7 20.7 20.6 20.6 20.5 20.4 20.4 20.3 20.2 20.1 20.1 20.0 20.0 20.8 20.6 20.6 20.9 20.8 20.8 20.8 20.8 20.9 20.8 20.8 20.7 20.7 20.6 20.6 20.6 20.5 20.5 20.4 20.3 20.3 20.2 20.1 20.1 20.0 20.0 20.6 20.6 20.6 20.7 20.7 20.7 20.7 20.7 20.7 20.7 20.7 20.6 20.6 20.5 20.5 20.5 20.5 20.4 20.4 20.3 20.3 20.2 20.1 20.1 20.0 20.0 20.4 20.4 20.5 20.6 20.6 20.6 20.5 20.6 20.6 20.6 20.6 20.5 20.5 20.5 20.5 20.4 20.4 20.4 20.3 20.3 20.2 20.2 20.1 20.1 20.0 20.0 20.2 20.3 20.4 20.4 20.5 20.4 20.4 20.5 20.5 20.5 20.5 20.4 20.4 20.4 20.4 20.4 20.4 20.3 20.3 20.3 20.2 20.2 20.1 20.1 20.0 20.0 20.2 20.2 20.3 20.4 20.4 20.3 20.3 20.4 20.4 20.4 20.4 20.4 20.3 20.3 20.3 20.3 20.3 20.3 20.3 20.3 20.2 20.2 20.1 20.1 20.0 20.0 20.2 20.2 20.2 20.3 20.3 20.3 20.3 20.3 20.3 20.3 20.3 20.3 20.3 20.3 20.3 20.3 20.3 20.3 20.2 20.2 20.2 20.2 20.1 20.1 20.0 20.0 20.1 20.2 20.2 20.2 20.2 20.2 20.2 20.2 20.2 20.3 20.2 20.2 20.2 20.2 20.2 20.2 20.2 20.2 20.2 20.2 20.2 20.2 20.1 20.1 20.0 20.0 20.1 20.1 20.1 20.2 20.2 20.1 20.1 20.2 20.2 20.2 20.2 20.2 20.1 20.1 20.1 20.1 20.2 20.2 20.2 20.2 20.2 20.1 20.1 20.1 20.0 20.0 20.1 20.1 20.1 20.1 20.1 20.1 20.1 20.1 20.1 20.1 20.1 20.1 20.1 20.1 20.1 20.1 20.1 20.1 20.1 20.1 20.1 20.1 20.1 20.1 20.0 20.0 20.0 20.1 20.1 20.1 20.1 20.1 20.1 20.1 20.1 20.1 20.1 20.1 20.1 20.1 20.1 20.1 20.1 20.1 20.1 20.1 20.1 20.1 20.1 20.1 20.0 20.0 20.0 20.0 20.0 20.0 20.0 20.0 20.0 20.0 20.0 20.0 20.0 20.0 20.0 20.0 20.0 20.0 20.0 20.0 20.0 20.0 20.0 20.0 20.0 20.0 20.0 20.0 20.0 20.0 20.0 20.0 20.0 20.0 20.0 20.0 20.0 20.0 20.0 20.0 20.0 20.0 20.0 20.0 20.0 20.0 20.0 20.0 20.0 20.0 20.0 20.0 20.0 20.0 23.9 29.0 31.8 31.3 32.3 35.6 44.6 44.5 32.4 26.4 25.3 24.4 23.7 23.1 22.6 22.2 21.9 21.6 21.3 21.1 20.8 20.6 20.5 20.3 20.1 20.1 24.0 25.4 26.2 26.6 28.0 28.9 29.1 28.4 26.6 25.3 24.6 23.9 23.3 22.9 22.4 22.1 21.7 21.4 21.2 21.0 20.8 20.6 20.4 20.3 20.1 20.1 23.6 24.1 24.6 25.1 26.0 26.7 26.8 26.2 25.3 24.6 24.0 23.5 23.0 22.6 22.2 21.9 21.6 21.3 21.1 20.9 20.7 20.5 20.4 20.2 20.1 20.1 23.2 23.5 24.0 24.5 25.0 25.5 25.7 25.2 24.4 24.0 23.5 23.1 22.7 22.4 22.1 21.8 21.5 21.3 21.0 20.8 20.7 20.5 20.3 20.2 20.1 20.0 22.9 23.1 23.6 24.1 24.4 24.7 24.8 24.4 23.9 23.5 23.1 22.8 22.5 22.2 21.9 21.7 21.4 21.2 21.0 20.8 20.6 20.5 20.3 20.2 20.1 20.0 22.6 23.0 23.5 23.9 23.9 23.9 23.9 23.7 23.4 23.0 22.7 22.5 22.3 22.0 21.8 21.6 21.4 21.2 21.0 20.8 20.6 20.5 20.3 20.2 20.1 20.0 22.5 23.0 23.6 23.8 23.4 23.2 23.2 23.2 22.9 22.7 22.4 22.2 22.1 21.9 21.6 21.5 21.3 21.1 20.9 20.8 20.6 20.4 20.3 20.2 20.1 20.0 22.6 23.2 23.8 23.7 23.0 22.7 22.8 22.7 22.6 22.4 22.2 22.0 21.9 21.7 21.5 21.3 21.2 21.0 20.9 20.7 20.6 20.4 20.3 20.2 20.1 20.0 22.8 23.7 24.0 23.3 22.6 22.4 22.4 22.3 22.2 22.1 21.9 21.8 21.7 21.5 21.4 21.2 21.1 20.9 20.8 20.6 20.5 20.4 20.3 20.2 20.1 20.0 22.3 23.1 23.2 22.6 22.2 22.0 22.1 22.0 22.0 21.8 21.7 21.6 21.5 21.4 21.2 21.1 21.0 20.8 20.7 20.6 20.5 20.3 20.2 20.1 20.1 20.0 21.7 22.0 22.1 22.0 21.8 21.7 21.8 21.8 21.7 21.6 21.5 21.4 21.3 21.2 21.1 21.0 20.9 20.8 20.7 20.6 20.4 20.3 20.2 20.1 20.1 20.0 21.5 21.7 21.7 21.7 21.5 21.5 21.5 21.5 21.5 21.4 21.3 21.2 21.2 21.1 21.0 20.9 20.8 20.7 20.6 20.5 20.4 20.3 20.2 20.1 20.1 20.0 21.3 21.3 21.3 21.3 21.3 21.3 21.3 21.3 21.3 21.2 21.2 21.1 21.0 21.0 20.9 20.8 20.8 20.7 20.6 20.5 20.4 20.3 20.2 20.1 20.1 20.0 21.1 21.0 21.0 21.1 21.1 21.1 21.1 21.1 21.1 21.1 21.0 20.9 20.9 20.8 20.8 20.7 20.7 20.6 20.5 20.4 20.4 20.3 20.2 20.1 20.1 20.0 20.8 20.8 20.8 20.9 20.9 20.9 20.9 21.0 21.0 20.9 20.9 20.8 20.8 20.7 20.7 20.7 20.6 20.6 20.5 20.4 20.3 20.3 20.2 20.1 20.0 20.0 20.6 20.6 20.7 20.7 20.8 20.8 20.8 20.8 20.8 20.8 20.8 20.7 20.7 20.6 20.6 20.6 20.5 20.5 20.4 20.4 20.3 20.2 20.2 20.1 20.0 20.0 20.4 20.5 20.5 20.6 20.7 20.6 20.6 20.7 20.7 20.7 20.7 20.6 20.6 20.6 20.5 20.5 20.5 20.4 20.4 20.4 20.3 20.2 20.2 20.1 20.0 20.0 20.3 20.4 20.4 20.5 20.6 20.5 20.5 20.6 20.6 20.6 20.6 20.5 20.5 20.5 20.5 20.4 20.4 20.4 20.4 20.3 20.3 20.2 20.2 20.1 20.0 20.0 20.3 20.3 20.4 20.4 20.5 20.4 20.4 20.5 20.5 20.5 20.5 20.4 20.4 20.4 20.4 20.4 20.4 20.4 20.3 20.3 20.3 20.2 20.2 20.1 20.0 20.0 20.2 20.3 20.3 20.4 20.4 20.3 20.3 20.3 20.4 20.4 20.4 20.3 20.3 20.3 20.3 20.3 20.3 20.3 20.3 20.3 20.2 20.2 20.1 20.1 20.0 20.0 20.2 20.2 20.2 20.3 20.3 20.2 20.2 20.3 20.3 20.3 20.3 20.3 20.3 20.2 20.2 20.2 20.3 20.3 20.2 20.2 20.2 20.2 20.1 20.1 20.0 20.0 20.1 20.2 20.2 20.2 20.2 20.2 20.2 20.2 20.2 20.2 20.2 20.2 20.2 20.2 20.2 20.2 20.2 20.2 20.2 20.2 20.2 20.2 20.1 20.1 20.0 20.0 20.1 20.1 20.1 20.1 20.1 20.1 20.1 20.1 20.1 20.2 20.2 20.1 20.1 20.1 20.1 20.1 20.1 20.1 20.1 20.1 20.1 20.1 20.1 20.1 20.1 20.0 20.1 20.1 20.1 20.1 20.1 20.1 20.1 20.1 20.1 20.1 20.1 20.1 20.1 20.1 20.1 20.1 20.1 20.1 20.1 20.1 20.1 20.1 20.1 20.1 20.1 20.0 20.0 20.0 20.0 20.0 20.0 20.0 20.0 20.0 20.0 20.0 20.0 20.0 20.0 20.0 20.0 20.0 20.0 20.0 20.0 20.0 20.0 20.0 20.1 20.1 20.1 20.0 20.0 20.0 20.0 20.0 20.0 20.0 20.0 20.0 20.0 20.0 20.0 20.0 20.0 20.0 20.0 20.0 20.0 20.0 20.0 20.0 20.0 20.0 20.0 20.0 20.0 20.0 24.2 33.0 36.8 32.0 31.0 33.9 39.0 42.1 34.6 26.5 25.3 24.6 23.9 23.4 22.9 22.4 22.0 21.7 21.4 21.1 20.9 20.7 20.5 20.3 20.1 20.1 24.2 26.0 26.8 26.7 27.9 28.7 28.7 28.1 26.7 25.4 24.7 24.1 23.5 23.1 22.7 22.3 21.9 21.6 21.3 21.0 20.8 20.6 20.4 20.3 20.1 20.1 23.7 24.3 24.8 25.5 26.3 26.6 26.6 26.2 25.4 24.7 24.2 23.6 23.2 22.9 22.5 22.2 21.8 21.5 21.2 21.0 20.8 20.6 20.4 20.2 20.1 20.1 23.4 23.8 24.2 24.7 25.3 25.6 25.7 25.3 24.6 24.1 23.7 23.3 23.0 22.6 22.3 22.0 21.8 21.5 21.2 21.0 20.7 20.6 20.4 20.2 20.1 20.1 23.1 23.4 23.9 24.3 24.5 24.8 24.9 24.6 24.1 23.7 23.3 23.0 22.7 22.5 22.2 21.9 21.7 21.4 21.2 20.9 20.7 20.5 20.4 20.2 20.1 20.1 22.8 23.3 23.8 24.1 24.0 24.1 24.1 23.9 23.6 23.3 23.0 22.7 22.5 22.3 22.0 21.8 21.6 21.3 21.1 20.9 20.7 20.5 20.4 20.2 20.1 20.1 22.7 23.3 23.9 23.9 23.5 23.4 23.4 23.4 23.2 22.9 22.7 22.5 22.3 22.1 21.9 21.7 21.5 21.3 21.1 20.9 20.7 20.5 20.4 20.2 20.1 20.0 22.5 23.3 23.9 23.6 23.0 22.9 23.0 22.9 22.8 22.6 22.4 22.2 22.1 21.9 21.7 21.6 21.4 21.2 21.0 20.8 20.7 20.5 20.3 20.2 20.1 20.0 22.3 23.2 23.5 23.0 22.6 22.5 22.5 22.5 22.4 22.3 22.1 22.0 21.9 21.7 21.6 21.4 21.3 21.1 20.9 20.8 20.6 20.5 20.3 20.2 20.1 20.0 21.9 22.4 22.5 22.3 22.2 22.2 22.2 22.2 22.1 22.0 21.9 21.8 21.7 21.6 21.5 21.3 21.2 21.0 20.9 20.7 20.6 20.4 20.3 20.2 20.1 20.0 21.5 21.7 21.8 21.8 21.8 21.9 21.9 21.9 21.9 21.8 21.7 21.6 21.5 21.4 21.3 21.2 21.1 21.0 20.8 20.7 20.5 20.4 20.3 20.2 20.1 20.0 21.3 21.4 21.4 21.5 21.6 21.6 21.7 21.7 21.7 21.6 21.5 21.4 21.3 21.3 21.2 21.1 21.0 20.9 20.8 20.6 20.5 20.4 20.3 20.2 20.1 20.0 21.1 21.2 21.2 21.3 21.4 21.4 21.4 21.5 21.4 21.4 21.3 21.2 21.2 21.1 21.1 21.0 20.9 20.8 20.7 20.6 20.5 20.4 20.2 20.1 20.1 20.0 20.9 20.9 21.0 21.1 21.2 21.2 21.2 21.3 21.3 21.2 21.2 21.1 21.0 21.0 20.9 20.9 20.8 20.7 20.7 20.6 20.5 20.3 20.2 20.1 20.1 20.0 20.8 20.8 20.8 21.0 21.0 21.0 21.1 21.1 21.1 21.1 21.0 21.0 20.9 20.9 20.8 20.8 20.7 20.7 20.6 20.5 20.4 20.3 20.2 20.1 20.1 20.0 20.6 20.6 20.7 20.8 20.9 20.9 20.9 20.9 21.0 21.0 20.9 20.8 20.8 20.8 20.7 20.7 20.7 20.6 20.6 20.5 20.4 20.3 20.2 20.1 20.1 20.0 20.5 20.5 20.6 20.7 20.8 20.7 20.7 20.8 20.9 20.8 20.8 20.7 20.7 20.7 20.7 20.6 20.6 20.6 20.5 20.5 20.4 20.3 20.2 20.1 20.1 20.0 20.4 20.5 20.6 20.6 20.7 20.6 20.6 20.7 20.7 20.7 20.7 20.6 20.6 20.6 20.6 20.5 20.5 20.5 20.5 20.4 20.4 20.3 20.2 20.1 20.1 20.0 20.3 20.4 20.5 20.5 20.5 20.5 20.5 20.5 20.6 20.6 20.6 20.5 20.5 20.5 20.5 20.5 20.5 20.4 20.4 20.4 20.3 20.3 20.2 20.1 20.1 20.0 20.3 20.3 20.4 20.4 20.4 20.4 20.4 20.4 20.5 20.5 20.5 20.4 20.4 20.4 20.4 20.4 20.4 20.4 20.4 20.3 20.3 20.3 20.2 20.1 20.1 20.0 20.2 20.3 20.3 20.3 20.3 20.3 20.3 20.3 20.4 20.4 20.4 20.3 20.3 20.3 20.3 20.3 20.3 20.3 20.3 20.3 20.3 20.2 20.2 20.1 20.1 20.0 20.2 20.2 20.2 20.3 20.2 20.2 20.2 20.2 20.3 20.3 20.3 20.3 20.2 20.2 20.2 20.2 20.2 20.2 20.3 20.2 20.2 20.2 20.2 20.1 20.1 20.0 20.1 20.1 20.2 20.2 20.2 20.1 20.1 20.2 20.2 20.2 20.2 20.2 20.2 20.1 20.1 20.1 20.2 20.2 20.2 20.2 20.2 20.2 20.2 20.1 20.1 20.0 20.1 20.1 20.1 20.1 20.1 20.1 20.1 20.1 20.1 20.1 20.1 20.1 20.1 20.1 20.1 20.1 20.1 20.1 20.1 20.1 20.1 20.1 20.1 20.1 20.1 20.0 20.0 20.0 20.0 20.0 20.0 20.0 20.0 20.0 20.0 20.1 20.1 20.0 20.0 20.0 20.0 20.0 20.0 20.0 20.0 20.0 20.1 20.1 20.1 20.1 20.1 20.0 20.0 20.0 20.0 20.0 20.0 20.0 20.0 20.0 20.0 20.0 20.0 20.0 20.0 20.0 20.0 20.0 20.0 20.0 20.0 20.0 20.0 20.0 20.0 20.0 20.0 20.1 24.4 33.3 36.8 32.0 30.5 31.7 33.5 39.2 35.9 26.7 25.4 24.8 24.2 23.6 23.2 22.7 22.3 21.9 21.5 21.2 20.9 20.7 20.5 20.3 20.1 20.1 24.2 25.6 26.5 26.8 27.7 28.2 28.1 27.8 26.7 25.5 24.9 24.4 23.9 23.4 23.0 22.6 22.2 21.8 21.4 21.1 20.9 20.6 20.5 20.3 20.1 20.1 23.8 24.4 24.9 25.7 26.4 26.4 26.4 26.2 25.5 24.8 24.4 24.0 23.5 23.1 22.8 22.4 22.1 21.7 21.4 21.1 20.8 20.6 20.4 20.3 20.1 20.1 23.5 24.0 24.5 25.1 25.5 25.5 25.5 25.3 24.8 24.3 23.9 23.6 23.2 22.9 22.6 22.3 22.0 21.7 21.3 21.1 20.8 20.6 20.4 20.3 20.1 20.1 23.3 23.8 24.3 24.6 24.7 24.8 24.9 24.7 24.3 23.9 23.5 23.2 23.0 22.7 22.4 22.1 21.9 21.6 21.3 21.0 20.8 20.6 20.4 20.3 20.1 20.1 23.1 23.7 24.2 24.3 24.2 24.1 24.1 24.0 23.8 23.5 23.2 22.9 22.7 22.5 22.3 22.0 21.8 21.5 21.3 21.0 20.8 20.6 20.4 20.2 20.1 20.1 22.9 23.6 24.1 24.0 23.6 23.6 23.5 23.5 23.3 23.1 22.9 22.7 22.5 22.3 22.1 21.9 21.7 21.4 21.2 21.0 20.7 20.5 20.4 20.2 20.1 20.1 22.5 23.3 23.7 23.3 23.1 23.1 23.1 23.0 22.9 22.8 22.6 22.4 22.3 22.1 21.9 21.8 21.6 21.4 21.2 21.0 20.7 20.5 20.4 20.2 20.1 20.0 22.0 22.6 22.9 22.7 22.6 22.7 22.7 22.7 22.6 22.5 22.3 22.2 22.0 21.9 21.8 21.6 21.5 21.3 21.1 20.9 20.7 20.5 20.4 20.2 20.1 20.0 21.6 22.0 22.1 22.2 22.3 22.3 22.4 22.4 22.3 22.2 22.1 21.9 21.8 21.7 21.6 21.5 21.4 21.2 21.0 20.9 20.7 20.5 20.3 20.2 20.1 20.0 21.4 21.6 21.8 21.9 21.9 22.0 22.1 22.1 22.1 21.9 21.8 21.7 21.6 21.6 21.5 21.4 21.3 21.1 21.0 20.8 20.6 20.5 20.3 20.2 20.1 20.0 21.2 21.3 21.5 21.6 21.7 21.8 21.8 21.8 21.8 21.7 21.6 21.5 21.5 21.4 21.3 21.3 21.2 21.0 20.9 20.8 20.6 20.5 20.3 20.2 20.1 20.0 21.0 21.1 21.3 21.4 21.5 21.5 21.6 21.6 21.6 21.5 21.4 21.4 21.3 21.3 21.2 21.1 21.1 21.0 20.8 20.7 20.6 20.4 20.3 20.2 20.1 20.0 20.9 21.0 21.1 21.2 21.3 21.3 21.3 21.4 21.4 21.4 21.3 21.2 21.2 21.1 21.1 21.0 21.0 20.9 20.8 20.7 20.6 20.4 20.3 20.2 20.1 20.0 20.8 20.9 21.0 21.1 21.2 21.1 21.2 21.2 21.3 21.2 21.1 21.1 21.0 21.0 21.0 20.9 20.9 20.8 20.7 20.6 20.5 20.4 20.3 20.2 20.1 20.0 20.7 20.8 20.9 21.0 21.0 21.0 21.0 21.1 21.1 21.1 21.0 20.9 20.9 20.9 20.9 20.8 20.8 20.7 20.7 20.6 20.5 20.4 20.3 20.2 20.1 20.0 20.6 20.7 20.8 20.9 20.9 20.8 20.8 20.9 21.0 21.0 20.9 20.8 20.8 20.8 20.8 20.7 20.7 20.7 20.6 20.6 20.5 20.4 20.3 20.2 20.1 20.0 20.5 20.6 20.7 20.7 20.7 20.7 20.7 20.8 20.8 20.8 20.8 20.7 20.7 20.7 20.7 20.7 20.6 20.6 20.6 20.5 20.4 20.4 20.3 20.1 20.1 20.0 20.5 20.5 20.6 20.6 20.6 20.6 20.6 20.6 20.7 20.7 20.7 20.6 20.6 20.6 20.6 20.6 20.6 20.5 20.5 20.5 20.4 20.3 20.2 20.1 20.1 20.0 20.4 20.4 20.5 20.5 20.5 20.4 20.4 20.5 20.6 20.6 20.6 20.5 20.5 20.5 20.5 20.5 20.5 20.5 20.5 20.4 20.4 20.3 20.2 20.1 20.1 20.0 20.3 20.3 20.4 20.4 20.4 20.3 20.3 20.4 20.4 20.5 20.5 20.4 20.4 20.4 20.4 20.4 20.4 20.4 20.4 20.4 20.4 20.3 20.2 20.1 20.1 20.0 20.2 20.3 20.3 20.3 20.3 20.2 20.2 20.3 20.3 20.3 20.3 20.3 20.3 20.3 20.3 20.3 20.3 20.3 20.3 20.3 20.3 20.3 20.2 20.2 20.1 20.0 20.2 20.2 20.2 20.2 20.2 20.2 20.2 20.2 20.2 20.2 20.2 20.2 20.2 20.2 20.2 20.2 20.2 20.2 20.2 20.2 20.2 20.2 20.2 20.2 20.1 20.0 20.1 20.1 20.1 20.1 20.1 20.1 20.1 20.1 20.1 20.1 20.1 20.1 20.1 20.1 20.1 20.1 20.1 20.1 20.1 20.1 20.1 20.2 20.2 20.2 20.1 20.0 20.0 20.1 20.1 20.1 20.0 20.0 20.0 20.0 20.1 20.1 20.1 20.1 20.1 20.0 20.0 20.0 20.0 20.0 20.1 20.1 20.1 20.1 20.1 20.1 20.1 20.1 20.0 20.0 20.0 20.0 20.0 20.0 20.0 20.0 20.0 20.0 20.0 20.0 20.0 20.0 20.0 20.0 20.0 20.0 20.0 20.0 20.0 20.0 20.0 20.0 20.1 20.1 24.4 30.0 32.1 30.5 29.7 29.8 30.5 35.0 33.6 27.1 25.6 24.9 24.4 23.9 23.4 22.9 22.5 22.1 21.7 21.3 21.0 20.7 20.5 20.3 20.1 20.1 24.2 25.2 26.1 26.7 27.4 27.7 27.7 27.5 26.7 25.7 25.1 24.5 24.0 23.6 23.2 22.8 22.4 22.0 21.6 21.3 20.9 20.7 20.5 20.3 20.1 20.1 23.8 24.5 25.1 25.8 26.3 26.3 26.3 26.2 25.7 25.1 24.6 24.1 23.7 23.3 23.0 22.6 22.3 21.9 21.6 21.2 20.9 20.6 20.4 20.3 20.1 20.1 23.6 24.3 24.8 25.3 25.6 25.5 25.5 25.4 25.0 24.6 24.1 23.8 23.4 23.1 22.8 22.5 22.2 21.8 21.5 21.2 20.9 20.6 20.4 20.2 20.1 20.1 23.4 24.1 24.7 24.9 24.9 24.8 24.9 24.8 24.6 24.2 23.7 23.4 23.1 22.8 22.6 22.3 22.0 21.7 21.5 21.2 20.9 20.6 20.4 20.3 20.1 20.1 23.3 24.1 24.5 24.5 24.3 24.3 24.3 24.2 24.1 23.8 23.4 23.1 22.9 22.6 22.4 22.2 21.9 21.7 21.4 21.1 20.9 20.6 20.4 20.2 20.1 20.1 23.0 23.8 24.1 24.0 23.8 23.8 23.7 23.7 23.6 23.4 23.0 22.8 22.6 22.4 22.2 22.0 21.8 21.6 21.4 21.1 20.8 20.6 20.4 20.2 20.1 20.1 22.6 23.2 23.5 23.3 23.3 23.3 23.3 23.3 23.2 22.9 22.7 22.5 22.3 22.2 22.0 21.9 21.7 21.5 21.3 21.1 20.8 20.6 20.4 20.2 20.1 20.1 22.1 22.5 22.7 22.7 22.8 22.9 22.9 22.9 22.8 22.6 22.4 22.2 22.1 22.0 21.8 21.7 21.6 21.4 21.2 21.0 20.8 20.6 20.4 20.2 20.1 20.0 21.8 22.0 22.2 22.3 22.4 22.5 22.6 22.6 22.4 22.3 22.1 22.0 21.9 21.8 21.7 21.6 21.5 21.3 21.2 21.0 20.8 20.6 20.4 20.2 20.1 20.0 21.5 21.7 21.9 22.0 22.1 22.2 22.2 22.2 22.2 22.0 21.9 21.8 21.7 21.6 21.5 21.4 21.3 21.2 21.1 20.9 20.7 20.6 20.4 20.2 20.1 20.0 21.3 21.5 21.6 21.8 21.8 21.9 21.9 22.0 21.9 21.8 21.7 21.6 21.5 21.5 21.4 21.3 21.2 21.1 21.0 20.9 20.7 20.5 20.4 20.2 20.1 20.0 21.1 21.3 21.4 21.5 21.6 21.6 21.7 21.7 21.7 21.6 21.5 21.4 21.4 21.3 21.3 21.2 21.1 21.1 21.0 20.8 20.7 20.5 20.4 20.2 20.1 20.0 21.0 21.2 21.3 21.4 21.4 21.4 21.4 21.5 21.5 21.5 21.3 21.3 21.2 21.2 21.1 21.1 21.0 21.0 20.9 20.8 20.6 20.5 20.3 20.2 20.1 20.0 20.9 21.0 21.2 21.2 21.3 21.2 21.2 21.3 21.4 21.3 21.2 21.1 21.1 21.1 21.0 21.0 20.9 20.9 20.8 20.7 20.6 20.5 20.3 20.2 20.1 20.0 20.8 20.9 21.0 21.1 21.