<?xml version="1.0"?>
<VTKFile type="PolyData" version="1.0" byte_order="LittleEndian" header_type="UInt64">
<PolyData>
<Piece NumberOfPoints="3525" NumberOfVerts="0" NumberOfLines="0" NumberOfPolys="0">
    <Points>
        <DataArray type="Float32" NumberOfComponents="3" format="ascii">
        16.0139 7.8454 2.1272 18.8493 10.4736 2.3578 18.6877 11.1366 1.1013 17.5390 9.8212 2.0662 18.6305 11.4702 0.7116 18.9084 11.1855 1.3596 16.7504 9.4887 2.2758 19.0967 11.7084 1.1521 17.1496 10.1528 1.1862 19.5644 11.7850 3.0998 18.8271 12.2236 0.9769 16.3635 8.2172 2.0393 17.2051 9.3014 1.7671 16.2077 9.5413 0.9177 17.4078 7.2874 1.4870 17.1580 4.9518 5.4230 17.2644 7.0109 2.1960 15.7849 8.9768 2.1036 18.6939 11.7472 0.9023 19.2616 10.2295 1.8520 16.5799 8.1091 2.1714 18.7956 10.2371 2.4115 18.7510 10.5232 2.4561 16.6468 7.6030 2.6408 18.9210 11.6894 0.9865 15.5724 8.2485 3.6584 19.5172 11.6714 2.7393 18.2034 10.0000 2.4364 15.5596 9.6345 1.8812 18.2251 10.2001 2.9820 15.4403 10.0000 1.4338 18.6014 10.3759 2.6057 15.4438 9.7976 3.2411 18.3106 10.2114 2.8965 18.6331 10.3197 2.5740 15.4922 10.7712 4.6491 18.6751 10.5450 2.5320 18.0920 10.3117 3.1151 18.1988 10.0000 2.5111 18.1491 10.2708 3.0580 18.7532 10.4643 2.4539 17.9689 10.2402 3.2382 18.7739 10.3699 2.4332 18.1763 10.1498 3.0308 18.4018 10.4190 2.8053 18.4577 10.4227 2.7494 15.7157 10.7448 5.7464 18.7906 10.5315 2.4165 19.1288 11.4838 1.1631 15.5660 10.0000 2.0481 18.5253 10.4186 2.6818 18.4456 10.4788 2.7615 18.9576 10.3687 2.2495 15.5297 10.0000 2.1939 15.4379 10.0000 1.2378 19.3091 11.5110 1.5059 15.2519 10.1628 0.8731 18.5183 11.4024 0.7918 18.4387 11.5929 0.6034 18.6740 11.3329 0.8679 18.5413 11.5724 0.6257 19.3514 11.5967 1.4514 15.8665 9.9716 2.2422 15.4607 10.0000 1.1670 18.7121 11.8184 0.8472 18.9061 10.2574 2.3011 19.2537 11.5639 1.2143 18.6893 11.0281 1.6472 15.0132 7.5409 4.5373 19.2096 11.3649 1.4265 16.1384 9.7557 1.0107 18.4771 12.0363 0.6346 18.7302 10.9420 1.7806 19.2617 11.5107 2.1007 18.7524 10.7786 2.1377 15.1540 7.7603 3.3027 18.8697 11.2003 1.1407 16.0086 8.0881 1.1443 16.4763 6.5086 3.2979 18.7766 10.7251 2.4305 16.1621 6.7252 2.2926 17.0854 6.4801 1.1982 16.0815 7.1685 1.3740 15.8532 6.5985 1.4654 18.8996 10.5581 2.2440 16.1211 0.8304 6.1708 15.3697 4.9479 3.4224 18.6868 10.7023 2.5203 18.7068 10.9008 1.4278 18.6593 10.7297 2.5478 16.7145 5.0039 2.2854 18.8959 11.1965 1.4654 16.6512 7.4998 2.3003 17.0729 3.6747 3.6158 18.7096 10.6047 2.4975 18.0063 10.2983 3.2009 16.7936 9.3839 1.4300 18.5490 10.3121 2.6582 18.4558 10.3868 2.7513 18.7686 10.5301 2.4385 17.1709 9.4862 1.0795 18.0171 10.9707 3.1900 18.1875 10.0368 1.8563 16.9396 9.0618 1.8206 16.7380 8.8676 2.2619 17.8637 10.2575 3.3434 17.1311 9.1033 1.3662 16.3711 8.2333 3.1803 18.6764 10.5128 2.5307 16.3897 8.2111 2.6930 18.5117 8.4947 2.4071 18.4299 10.0966 3.1033 18.1472 9.6262 3.2303 18.8076 8.8940 3.0583 18.6182 7.9913 3.1679 20.9156 4.1576 5.7664 18.9873 10.4517 2.2198 18.1548 10.9902 3.0523 19.5312 11.6915 2.9740 18.6988 10.7200 2.5083 16.1542 7.1193 4.5335 18.6458 10.3599 2.5613 18.1659 10.5519 3.0412 17.2634 9.0718 1.4547 16.1039 7.4653 4.2641 17.9638 11.1628 3.2433 18.4705 10.7027 2.7366 17.9965 11.2949 8.3940 16.5868 8.4218 2.6704 16.1172 14.2568 8.3940 18.7019 10.9299 1.6442 18.0426 10.6584 3.1645 18.0819 11.5801 8.3940 16.1546 7.2364 4.2512 16.5792 8.5799 1.3576 16.3229 7.8562 3.3839 18.1280 10.8567 3.0791 18.5969 10.6715 2.6102 16.9992 7.0623 4.2110 16.8407 8.3666 2.2281 18.6893 10.9735 1.7452 18.1723 10.9831 3.0348 16.4225 9.1775 1.9376 18.6222 10.7951 2.5849 18.2423 10.5528 2.9648 18.5713 11.2647 0.8782 17.8714 13.7758 8.3940 18.1415 13.8639 8.3940 18.1187 13.8127 8.3940 15.5082 14.1145 8.3940 17.3079 8.0169 1.9166 16.9589 7.8935 1.0179 17.4167 11.0236 8.3940 17.7230 8.4251 2.1548 17.3178 8.0381 1.1089 16.7410 3.7427 6.1522 18.1070 10.5827 3.1001 18.3387 12.9102 8.3940 18.2880 10.7721 2.9191 18.1509 8.2783 1.9259 17.8530 13.7001 8.3940 17.6306 6.2982 5.4706 17.8594 10.7038 1.9695 18.6254 10.7734 2.5817 17.8458 14.0515 8.3940 15.3255 13.8846 8.3940 18.0679 6.7417 4.4262 18.6498 7.7969 3.1732 18.1799 11.1446 3.0272 19.2456 5.7809 4.6802 17.4613 10.7975 8.3940 19.2019 11.3387 1.4500 18.7064 11.0729 1.4126 18.1940 11.2515 3.0131 17.9971 10.0000 0.8620 18.6841 7.7812 2.0218 19.5168 5.4183 5.1608 18.0477 10.7715 3.1594 18.4315 12.4975 8.3940 18.3713 13.5345 8.3940 15.5830 13.6024 8.3940 15.6877 11.0736 8.3940 18.5076 12.5548 8.3940 18.5023 13.0697 8.3940 15.5688 14.1628 8.3940 17.9297 10.7740 3.2774 18.6641 8.0286 2.5244 18.5918 9.8368 1.3705 18.1779 10.8721 3.0292 18.4854 13.1496 8.3940 15.2985 11.1711 8.3940 18.2065 10.9805 3.0006 18.1144 11.1187 3.0927 18.6727 9.0268 2.1825 18.1081 11.3167 3.0990 18.1266 10.5938 3.0805 18.2577 12.0067 8.3940 17.8701 11.2733 8.3940 20.6804 2.6027 6.7890 18.3102 7.9762 3.3971 18.1266 11.2374 3.0805 18.8096 7.2203 4.2129 15.1446 10.4055 2.5188 18.1907 11.1460 3.0164 15.1365 10.6067 3.5258 17.7086 11.1326 3.4985 15.0138 10.3375 3.2790 17.1818 10.0000 2.0552 18.0389 11.1482 3.1682 18.1870 10.6923 3.0201 18.0162 10.9487 3.1909 16.8387 10.0000 3.0384 18.1257 11.0458 3.0814 15.4587 10.8325 4.7147 19.3566 7.5001 5.4591 17.7414 11.1137 3.4657 18.2094 11.3849 2.9977 18.1283 11.1050 3.0788 18.1444 11.0709 3.0627 17.5328 10.7160 3.6743 16.8816 10.3370 2.1684 17.1625 10.9404 4.0446 16.7180 9.8752 4.1054 17.6001 11.1563 8.3940 18.0263 11.1387 3.1808 15.3874 13.7227 8.3940 17.8062 11.2193 4.0023 17.6166 12.0518 3.9492 17.8904 10.4025 3.3167 18.2521 10.7286 2.9550 18.0924 10.9825 3.1147 18.2019 10.0000 2.7713 16.6604 10.9491 8.3940 15.7210 10.9195 8.3940 16.7379 10.8337 8.3940 18.6744 6.8902 5.6004 18.0818 11.2922 3.1253 18.1109 9.4767 4.0430 17.1218 11.9798 4.0853 15.9430 11.1656 8.3940 18.2113 13.5986 8.3940 15.2942 10.0000 2.9332 18.1448 11.2957 3.0623 16.6069 14.3271 8.3940 17.4019 13.9087 8.3940 15.1654 10.0000 2.0976 18.1198 10.9748 3.0873 15.4415 10.0000 2.8917 18.5008 6.6308 6.3273 16.7842 14.3793 8.3940 17.1095 14.0664 8.3940 15.6563 8.7453 4.3492 18.2163 10.5800 2.9908 18.0166 11.0994 3.1905 17.2600 10.7683 8.3940 17.5724 10.2783 3.6347 15.3815 11.7270 8.3940 18.1130 11.1209 3.0941 18.1885 11.3563 3.0186 19.0002 5.5413 7.5807 17.0399 10.9866 5.6118 16.6778 10.0000 2.1170 16.0489 10.9081 8.3940 15.9606 10.8712 8.3940 18.2072 11.6121 8.3940 18.0293 11.3498 3.1778 18.0648 10.6721 3.1423 18.0042 10.9501 3.2029 17.9201 4.8343 6.9559 17.9583 10.7997 3.2488 18.1114 11.2286 3.0957 16.5407 10.7444 8.3940 17.8099 11.1580 8.3940 17.2174 10.8839 8.3940 17.7523 11.5614 8.3940 18.1599 11.1000 3.0472 18.4852 12.5035 8.3940 16.6825 10.9566 4.6044 18.1166 11.3338 3.0905 16.0276 10.0000 2.8459 17.6017 10.6075 3.6054 17.3460 10.9082 8.3940 16.1727 11.1499 8.3940 16.7529 14.3651 8.3940 16.1801 14.2876 8.3940 18.0726 11.9594 8.3940 17.8364 11.2969 3.3707 18.1000 11.0197 3.1071 17.7827 10.7939 3.4244 17.4714 10.8390 3.7357 16.5838 10.0000 2.1713 17.7197 11.0126 3.4875 17.6499 10.4851 3.5572 18.1271 12.9872 8.3940 17.4528 14.0422 8.3940 16.3707 10.7783 8.3940 15.2361 13.1140 8.3940 15.3752 10.0000 1.5960 16.0304 11.1087 5.6476 16.5988 8.2659 5.6029 15.2173 10.9890 1.1703 16.5482 10.8223 8.3940 15.3059 13.1107 8.3940 17.5322 10.1052 4.5454 15.1521 11.3296 4.5898 15.3161 12.3560 5.4566 18.0249 10.7696 3.1822 17.1747 14.1790 8.3940 18.0925 11.6871 8.3940 17.9393 10.6534 3.2678 17.3237 10.3300 4.2718 16.0762 14.0162 8.3940 18.1558 11.0621 3.0513 15.5073 9.9629 2.4590 18.0211 10.3729 3.1860 17.9515 11.1821 3.2556 18.0592 11.7225 8.3940 15.5191 9.9614 2.5644 17.7492 10.4918 3.4579 15.1811 13.2905 8.3940 17.4706 10.9627 3.7366 16.2393 8.8736 4.4943 18.1970 13.2324 8.3940 18.3277 12.8974 8.3940 16.0815 11.2815 8.3940 17.2203 14.2030 8.3940 16.0229 11.5915 6.0268 17.7320 11.1746 3.4751 16.8442 13.9330 8.3940 17.0613 10.9886 8.3940 15.2298 10.8584 1.4402 18.0135 11.7631 8.3940 17.8791 11.5201 8.3940 15.3278 13.7092 8.3940 15.0056 10.1890 1.6500 15.0073 10.0000 2.7128 17.7218 10.8574 3.4853 17.6328 10.3429 3.5743 18.1973 10.7862 3.0098 17.8885 10.9121 3.3186 17.6018 10.7738 3.6053 17.9425 10.3198 3.2646 17.7443 11.2105 3.4628 18.1624 11.3445 3.0448 18.0798 11.2384 3.1273 17.6035 11.0464 3.6036 17.6197 11.2012 3.5874 17.6052 10.8124 3.6019 16.2055 10.0000 2.0703 17.6038 10.6253 3.6033 18.0447 10.7335 3.1625 15.3823 7.9581 1.6623 15.4889 7.2812 2.9985 15.1827 8.6275 1.7737 17.6601 11.0914 3.5470 17.4292 10.8346 3.7779 15.6923 8.4504 1.9833 16.8125 9.9724 2.6948 18.1781 11.1364 3.0290 17.7814 10.8869 3.4257 17.8468 10.8445 3.3603 18.0881 11.1898 3.1190 17.8356 10.8615 3.3715 17.7415 10.2937 3.4656 15.0560 10.4702 2.6346 17.8337 10.8738 3.3734 17.8886 11.2752 3.3185 17.6979 10.7549 3.5092 15.5247 8.4015 1.3038 16.0929 1.8008 5.9981 18.0152 10.5324 3.1919 17.6121 10.1692 3.5950 15.2098 6.5951 3.5229 18.1889 10.5413 3.0182 17.8116 11.2328 3.3956 17.8513 10.6881 3.3558 15.5851 13.4392 8.3940 17.8906 11.3964 8.3940 18.3434 12.2486 8.3940 15.4228 13.5160 8.3940 16.9366 13.9125 8.3940 18.3185 12.6804 8.3940 18.0789 11.1300 3.1282 17.7284 11.2126 8.3940 18.0845 10.6110 3.1226 18.0129 10.3761 3.1942 18.0094 10.6810 3.1977 17.4432 14.0585 8.3940 17.5776 13.7704 8.3940 16.3603 14.2354 8.3940 18.1569 10.9841 3.0502 17.7346 11.3480 3.4725 15.5608 13.5456 8.3940 16.7883 11.2163 8.3940 15.2599 8.2579 2.9477 17.9021 10.2062 3.3050 15.1374 9.6089 2.3098 16.9138 10.8514 8.3940 15.8095 13.9001 8.3940 15.5269 13.7251 8.3940 15.8207 13.8812 8.3940 15.5607 11.5507 8.3940 18.0042 12.4714 8.3940 17.9986 10.9980 3.2085 15.5106 13.4514 8.3940 17.9004 13.3220 8.3940 18.0056 13.1119 8.3940 15.2805 10.2097 1.5920 15.1511 8.9807 1.4358 15.8722 11.4192 8.3940 18.0111 12.5307 8.3940 16.0274 11.2773 8.3940 17.7992 10.7965 3.4079 15.1707 10.5197 1.9536 18.0823 10.5706 3.1248 17.7500 11.0131 3.4571 17.5708 13.5433 8.3940 15.5366 11.7467 8.3940 17.9767 12.1670 8.3940 18.0085 13.5261 8.3940 17.3743 11.3552 8.3940 15.6157 11.6048 8.3940 17.7428 11.7985 8.3940 15.3637 8.6631 2.0198 15.3144 8.0553 2.8451 18.0649 11.9890 
[...]
    <PointData>
        <DataArray type="Float32" Name="tag" format="ascii">
            131.0000 299.0000 1567.0000 2191.0000 2391.0000 2475.0000 3271.0000 4395.0000 4643.0000 4891.0000 5299.0000 5703.0000 5815.0000 6911.0000 8263.0000 8603.0000 9027.0000 9407.0000 9459.0000 9751.0000 9963.0000 10155.0000 10279.0000 10311.0000 10531.0000 10611.0000 10763.0000 11351.0000 11427.0000 11439.0000 11759.0000 12011.0000 12211.0000 12395.0000 12411.0000 12631.0000 12719.0000 13023.0000 13083.0000 13875.0000 14087.0000 14151.0000 14179.0000 14255.0000 14327.0000 14491.0000 14763.0000 15971.0000 16811.0000 17007.0000 17235.0000 17919.0000 18279.0000 19547.0000 20267.0000 21147.0000 21751.0000 23339.0000 23367.0000 23731.0000 23951.0000 24743.0000 25151.0000 25303.0000 26175.0000 29639.0000 30023.0000 30395.0000 30607.0000 30863.0000 31915.0000 32111.0000 32255.0000 32943.0000 33435.0000 33583.0000 35675.0000 35779.0000 35963.0000 35995.0000 36935.0000 38399.0000 38523.0000 38591.0000 38627.0000 39383.0000 39655.0000 39943.0000 40335.0000 40439.0000 40963.0000 41515.0000 41567.0000 41895.0000 42015.0000 43367.0000 43467.0000 43535.0000 43903.0000 43959.0000 44151.0000 45371.0000 45395.0000 45931.0000 46091.0000 46347.0000 46351.0000 46683.0000 46735.0000 50003.0000 64467.0000 65415.0000 66307.0000 63635.0000 65379.0000 66299.0000 61283.0000 66279.0000 57147.0000 47043.0000 47311.0000 47347.0000 47411.0000 47419.0000 48039.0000 48219.0000 48255.0000 48363.0000 48551.0000 49155.0000 49643.0000 49771.0000 50039.0000 50047.0000 50059.0000 50311.0000 50415.0000 50675.0000 50735.0000 50815.0000 51271.0000 51291.0000 51799.0000 51815.0000 52923.0000 53131.0000 53515.0000 53535.0000 53539.0000 54415.0000 55015.0000 55143.0000 55283.0000 55623.0000 56031.0000 56307.0000 56535.0000 57183.0000 57487.0000 57787.0000 58003.0000 58471.0000 58527.0000 58607.0000 58875.0000 59667.0000 59927.0000 59947.0000 60063.0000 60495.0000 60563.0000 60675.0000 61407.0000 61627.0000 61847.0000 62139.0000 62419.0000 62599.0000 62951.0000 63815.0000 63855.0000 63911.0000 63927.0000 64587.0000 64607.0000 64683.0000 64803.0000 64811.0000 64835.0000 65551.0000 65579.0000 65927.0000 65975.0000 66003.0000 66075.0000 66423.0000 66439.0000 66479.0000 66523.0000 66703.0000 66707.0000 66955.0000 85919.0000 81631.0000 84223.0000 82479.0000 82459.0000 80691.0000 72223.0000 82451.0000 80683.0000 74655.0000 74635.0000 81515.0000 72203.0000 77203.0000 69439.0000 73731.0000 72179.0000 71559.0000 75571.0000 80583.0000 84911.0000 67267.0000 67715.0000 68047.0000 68511.0000 68587.0000 68607.0000 69067.0000 69187.0000 69471.0000 69479.0000 69487.0000 69491.0000 69651.0000 69879.0000 69995.0000 70659.0000 70879.0000 70911.0000 71147.0000 71271.0000 71579.0000 71627.0000 71799.0000 71815.0000 71955.0000 72047.0000 72307.0000 72331.0000 72379.0000 72523.0000 72547.0000 73115.0000 73623.0000 73947.0000 73999.0000 74051.0000 74099.0000 74259.0000 74723.0000 74755.0000 74783.0000 74839.0000 74915.0000 74955.0000 75075.0000 75171.0000 75267.0000 75379.0000 75595.0000 75631.0000 75651.0000 75683.0000 75711.0000 75719.0000 76459.0000 76739.0000 76995.0000 77059.0000 77315.0000 77351.0000 77383.0000 77399.0000 77451.0000 77459.0000 77515.0000 78239.0000 78543.0000 78643.0000 79503.0000 79527.0000 79911.0000 79967.0000 79999.0000 80051.0000 80091.0000 80435.0000 80563.0000 80799.0000 80831.0000 80843.0000 81035.0000 81067.0000 81147.0000 81175.0000 81735.0000 81759.0000 82155.0000 82235.0000 82543.0000 82699.0000 82731.0000 83019.0000 83143.0000 83415.0000 83623.0000 83867.0000 84435.0000 84607.0000 84667.0000 85127.0000 85171.0000 85227.0000 85251.0000 85379.0000 85487.0000 85955.0000 85959.0000 86035.0000 86047.0000 86067.0000 86071.0000 86103.0000 86155.0000 91619.0000 99303.0000 103835.0000 98515.0000 105495.0000 97147.0000 91539.0000 107171.0000 100103.0000 105467.0000 99215.0000 99207.0000 107127.0000 101803.0000 100059.0000 101779.0000 102771.0000 97051.0000 99107.0000 93675.0000 100175.0000 106195.0000 107015.0000 107011.0000 102715.0000 90747.0000 100839.0000 101699.0000 89959.0000 95751.0000 101679.0000 100807.0000 101959.0000 102899.0000 101655.0000 99935.0000 102635.0000 101607.0000 103515.0000 105207.0000 86863.0000 86895.0000 86915.0000 86931.0000 86979.0000 86999.0000 87075.0000 87807.0000 88039.0000 88083.0000 88195.0000 88559.0000 88663.0000 88727.0000 88823.0000 89095.0000 89423.0000 89475.0000 89511.0000 89731.0000 89787.0000 90231.0000 90283.0000 90287.0000 90303.0000 90331.0000 90363.0000 90383.0000 90899.0000 90915.0000 90963.0000 91307.0000 91723.0000 91771.0000 91823.0000 91843.0000 91967.0000 91979.0000 92115.0000 92143.0000 92415.0000 93151.0000 93203.0000 93219.0000 93343.0000 93959.0000 93983.0000 94071.0000 94087.0000 94103.0000 94379.0000 94623.0000 94643.0000 94655.0000 94791.0000 95035.0000 95295.0000 95307.0000 95339.0000 95419.0000 95427.0000 95515.0000 95675.0000 95947.0000 96019.0000 96055.0000 96239.0000 96555.0000 96571.0000 96635.0000 96643.0000 96667.0000 96679.0000 96695.0000 96703.0000 96755.0000 96771.0000 96891.0000 97487.0000 97871.0000 97887.0000 97919.0000 97923.0000 97939.0000 98015.0000 98019.0000 98599.0000 98615.0000 98719.0000 98767.0000 98847.0000 98879.0000 98943.0000 99323.0000 99327.0000 99611.0000 99615.0000 99647.0000 100215.0000 100295.0000 100303.0000 100319.0000 100331.0000 100383.0000 100427.0000 100479.0000 100703.0000 101067.0000 101083.0000 101099.0000 101127.0000 101167.0000 101195.0000 101199.0000 101203.0000 101279.0000 101495.0000 101991.0000 102159.0000 102207.0000 102287.0000 102335.0000 102995.0000 103019.0000 103031.0000 103039.0000 103075.0000 103175.0000 103331.0000 103407.0000 103475.0000 103955.0000 103959.0000 104007.0000 104047.0000 104059.0000 104063.0000 104115.0000 104159.0000 104183.0000 104227.0000 104315.0000 104763.0000 104843.0000 104891.0000 104903.0000 104915.0000 104923.0000 104935.0000 104943.0000 104979.0000 105603.0000 105639.0000 105775.0000 105795.0000 105843.0000 106419.0000 106487.0000 106531.0000 106583.0000 106639.0000 106667.0000 106683.0000 106723.0000 106835.0000 120087.0000 115571.0000 118583.0000 110443.0000 121587.0000 120071.0000 121423.0000 119863.0000 109655.0000 116319.0000 122951.0000 113115.0000 117623.0000 121583.0000 120615.0000 123667.0000 120599.0000 111431.0000 122139.0000 109559.0000 116047.0000 115271.0000 121359.0000 113739.0000 124379.0000 110339.0000 119071.0000 111139.0000 112811.0000 111951.0000 112803.0000 109511.0000 117011.0000 111947.0000 120551.0000 109731.0000 111415.0000 112259.0000 113939.0000 124359.0000 125135.0000 111103.0000 111923.0000 111919.0000 116015.0000 112767.0000 111903.0000 112759.0000 107835.0000 125383.0000 112751.0000 124351.0000 126831.0000 118519.0000 121303.0000 107815.0000 120519.0000 125099.0000 111871.0000 120011.0000 119003.0000 126815.0000 111067.0000 114407.0000 123519.0000 118179.0000 124311.0000 114759.0000 118167.0000 116599.0000 110227.0000 115931.0000 124287.0000 125959.0000 115923.0000 115919.0000 125063.0000 119699.0000 114371.0000 121203.0000 120467.0000 125051.0000 121187.0000 120463.0000 111023.0000 118131.0000 113603.0000 110191.0000 121167.0000 118935.0000 119659.0000 123451.0000 112655.0000 122775.0000 117423.0000 118927.0000 119647.0000 116519.0000 117415.0000 118115.0000 112647.0000 121143.0000 121127.0000 124231.0000 118095.0000 109383.0000 111003.0000 122731.0000 124199.0000 119615.0000 109379.0000 118079.0000 118075.0000 126675.0000 118879.0000 114323.0000 118871.0000 123399.0000 124183.0000 124927.0000 124179.0000 118859.0000 112591.0000 109351.0000 112587.0000 122671.0000 115831.0000 118847.0000 118843.0000 114291.0000 110967.0000 112571.0000 122639.0000 118039.0000 111719.0000 126603.0000 112551.0000 120331.0000 122635.0000 118835.0000 124887.0000 109327.0000 121079.0000 125771.0000 125767.0000 111675.0000 119515.0000 118803.0000 118011.0000 122615.0000 126559.0000 125743.0000 120291.0000 125739.0000 124535.0000 118779.0000 124087.0000 121507.0000 108855.0000 122259.0000 116187.0000 113883.0000 118447.0000 115399.0000 116919.0000 122999.0000 118419.0000 116143.0000 126155.0000 123747.0000 119191.0000 119179.0000 126975.0000 111295.0000 122223.0000 125299.0000 107263.0000 107295.0000 107339.0000 107391.0000 107423.0000 107483.0000 107555.0000 108091.0000 108099.0000 108195.0000 108203.0000 108231.0000 108251.0000 108255.0000 108371.0000 108451.0000 108459.0000 109031.0000 109035.0000 109119.0000 109151.0000 109191.0000 109275.0000 109287.0000 109791.0000 109855.0000 109911.0000 109983.0000 110667.0000 110691.0000 110759.0000 110803.0000 110831.0000 110883.0000 110899.0000 110903.0000 111467.0000 111475.0000 111503.0000 111515.0000 111607.0000 111623.0000 111655.0000 112371.0000 113155.0000 113203.0000 113299.0000 113419.0000 113447.0000 113483.0000 113487.0000 114039.0000 114087.0000 114243.0000 114915.0000 114927.0000 114943.0000 114991.0000 115667.0000 115767.0000 116331.0000 116371.0000 116391.0000 116419.0000 117167.0000 117311.0000 117855.0000 117891.0000 117967.0000 118591.0000 118611.0000 118719.0000 118739.0000 119343.0000 119419.0000 119447.0000 120111.0000 120135.0000 120151.0000 120183.0000 120243.0000 120251.0000 120883.0000 121031.0000 121611.0000 121643.0000 121651.0000 121679.0000 121743.0000 122375.0000 122479.0000 122503.0000 122539.0000 123099.0000 123127.0000 123131.0000 123159.0000 123175.0000 123203.0000 123215.0000 123219.0000 123227.0000 123259.0000 123939.0000 124015.0000 124043.0000 124659.0000 124663.0000 124735.0000 124743.0000 124747.0000 124791.0000 124799.0000 124807.0000 124823.0000 125439.0000 125483.0000 125547.0000 125603.0000 125655.0000 125675.0000 126351.0000 126383.0000 126427.0000 126443.0000 126471.0000 126479.0000 140835.0000 137607.0000 127907.0000 137603.0000 146967.0000 139287.0000 136687.0000 135659.0000 140819.0000 129559.0000 130243.0000 136563.0000 132915.0000 128611.0000 135619.0000 131191.0000 131959.0000 139195.0000 130379.0000 146823.0000 130987.0000 130215.0000 130983.0000 145879.0000 130207.0000 135751.0000 130971.0000 130195.0000 128563.0000 127731.0000 135591.0000 129547.0000 136515.0000 140795.0000 132075.0000 133731.0000 128547.0000 136511.0000 134667.0000 146927.0000 137411.0000 142315.0000 146923.0000 142311.0000 130175.0000 146759.0000 129335.0000 130935.0000 128699.0000 140603.0000 135507.0000 131899.0000 128691.0000 131159.0000 136479.0000 128515.0000 145047.0000 132851.0000 138307.0000 135715.0000 145815.0000 133675.0000 131131.0000 135499.0000 127659.0000 138447.0000 146735.0000 127639.0000 143111.0000 130907.0000 146903.0000 143235.0000 134603.0000 145019.0000 130883.0000 140571.0000 136431.0000 129239.0000 132787.0000 137515.0000 129223.0000 130847.0000 145763.0000 130819.0000 130079.0000 131807.0000 129175.0000 134535.0000 140543.0000 136387.0000 129151.0000 129147.0000 134499.0000 130015.0000 133555.0000 140515.0000 127495.0000 135355.0000 132699.0000 139783.0000 128347.0000 128339.0000 135331.0000 136319.0000 134455.0000 132687.0000 133495.0000 129071.0000 134423.0000 127443.0000 134395.0000 133483.0000 141259.0000 137295.0000 143831.0000 144999.0000 140455.0000 146619.0000 135283.0000 142159.0000 140451.0000 146611.0000 129943.0000 132643.0000 143815.0000 129935.0000 135259.0000 131651.0000 129919.0000 127395.0000 130631.0000 145639.0000 130603.0000 139651.0000 139647.0000 142919.0000 140407.0000 129891.0000 145607.0000 143759.0000 134283.0000 146567.0000 132555.0000 140379.0000 131583.0000 142091.0000 142891.0000 129007.0000 130567.0000 138051.0000 143731.0000 129859.0000 145547.0000 142859.0000 134259.0000 132507.0000 128979.0000 142823.0000 135139.0000 139583.0000 146515.0000 128967.0000 140323.0000 138895.0000 129495.0000 145479.0000 140307.0000 145475.0000 142775.0000 137135.0000 127299.0000 141115.0000 140303.0000 136147.0000 136143.0000 142003.0000 138007.0000 145459.0000 136135.0000 130495.0000 144575.0000 133359.0000 135675.0000 144563.0000 145431.0000 145927.0000 144551.0000 127103.0000 127123.0000 127175.0000 127255.0000 127259.0000 128059.0000 128067.0000 128115.0000 128795.0000 128847.0000 129579.0000 129623.0000 129687.0000 129799.0000 130475.0000 131275.0000 131279.0000 131391.0000 131415.0000 132187.0000 132207.0000 132211.0000 132291.0000 132307.0000 132423.0000 132439.0000 133063.0000 133111.0000 133123.0000 133211.0000 133243.0000 133275.0000 133339.0000 134055.0000 134059.0000 134067.0000 134119.0000 134147.0000 134151.0000 134899.0000 134919.0000 134923.0000 134927.0000 134947.0000 134991.0000 135787.0000 135835.0000 135839.0000 135891.0000 135987.0000 135999.0000 136003.0000 136007.0000 136027.0000 136055.0000 136087.0000 136103.0000 136727.0000 136755.0000 136935.0000 136943.0000 137687.0000 137691.0000 137727.0000 137771.0000 137843.0000 137867.0000 137903.0000 137975.0000 138547.0000 138643.0000 138683.0000 138703.0000 138711.0000 138751.0000 138787.0000 138791.0000 138839.0000 139315.0000 139367.0000 139395.0000 139463.0000 139491.0000 140103.0000 140123.0000 140147.0000 140171.0000 140839.0000 140879.0000 140919.0000 140943.0000 141047.0000 141631.0000 141643.0000 141659.0000 141715.0000 141763.0000 141775.0000 141819.0000 141823.0000 141855.0000 141867.0000 141879.0000 142507.0000 142535.0000 142631.0000 142691.0000 142727.0000 143375.0000 143455.0000 143511.0000 143539.0000 143583.0000 143635.0000 143639.0000 144255.0000 144259.0000 144415.0000 144479.0000 144519.0000 145183.0000 145187.0000 145287.0000 145295.0000 145315.0000 146107.0000 146147.0000 146167.0000 146191.0000 146207.0000 146211.0000 146247.0000 146251.0000 146271.0000 146323.0000 146419.0000 160919.0000 152583.0000 164643.0000 166619.0000 152579.0000 151543.0000 159119.0000 160863.0000 153407.0000 153403.0000 147891.0000 160855.0000 156203.0000 150603.0000 147731.0000 171651.0000 162703.0000 147719.0000 171647.0000 160827.0000 160823.0000 168315.0000 169907.0000 173223.0000 148803.0000 160967.0000 147839.0000 155195.0000 158939.0000 154411.0000 160023.0000 156275.0000 150655.0000 155343.0000 157211.0000 147819.0000 151427.0000 149723.0000 154239.0000 162635.0000 150499.0000 151403.0000 168231.0000 171607.0000 157071.0000 152491.0000 166319.0000 148563.0000 154171.0000 151271.0000 151259.0000 153207.0000 152251.0000 166239.0000 149479.0000 152239.0000 157871.0000 148495.0000 160659.0000 152223.0000 151211.0000 148479.0000 152203.0000 168163.0000 164343.0000 159719.0000 157803.0000 155915.0000 149359.0000 149355.0000 151151.0000 155899.0000 156931.0000 150643.0000 156915.0000 151135.0000 152151.0000 156903.0000 158735.0000 168099.0000 147383.0000 158719.0000 149283.0000 171451.0000 150235.0000 150227.0000 151103.0000 160567.0000 160563.0000 152115.0000 173011.0000 154891.0000 156843.0000 169699.0000 150207.0000 153015.0000 157683.0000 160535.0000 166119.0000 147339.0000 171391.0000 148327.0000 164215.0000 162375.0000 158675.0000 149227.0000 154871.0000 152995.0000 152103.0000 158667.0000 158663.0000 160507.0000 151079.0000 166099.0000 152099.0000 160503.0000 154863.0000 166095.0000 162339.0000 160491.0000 170075.0000 147015.0000 147059.0000 147103.0000 147143.0000 147211.0000 147219.0000 147223.0000 147235.0000 147239.0000 147283.0000 147287.0000 147983.0000 148051.0000 148067.0000 148199.0000 148271.0000 148275.0000 148867.0000 148995.0000 149003.0000 149087.0000 149103.0000 149111.0000 149131.0000 149179.0000 149219.0000 149851.0000 149903.0000 149959.0000 149983.0000 149991.0000 150019.0000 150079.0000 150867.0000 150879.0000 150911.0000 150923.0000 150935.0000 150975.0000 150999.0000 151003.0000 151699.0000 151723.0000 151823.0000 151839.0000 151935.0000 151963.0000 151971.0000 151983.0000 151999.0000 152003.0000 152039.0000 152087.0000 152595.0000 152599.0000 152631.0000 152643.0000 152667.0000 152695.0000 152795.0000 152863.0000 152867.0000 152891.0000 152895.0000 152971.0000 152975.0000 153535.0000 153651.0000 153735.0000 153827.0000 153831.0000 153851.0000 153943.0000 153959.0000 153963.0000 154519.0000 154535.0000 154587.0000 154707.0000 154719.0000 154743.0000 154819.0000 155431.0000 155447.0000 155491.0000 155663.0000 155675.0000 155711.0000 156375.0000 156531.0000 156587.0000 156607.0000 156687.0000 156699.0000 156707.0000 156711.0000 156799.0000 157275.0000 157287.0000 157319.0000 157371.0000 157411.0000 157427.0000 157435.0000 157447.0000 157471.0000 157579.0000 158239.0000 158259.0000 158267.0000 158523.0000 158527.0000 158603.0000 158655.0000 159143.0000 159303.0000 159331.0000 159371.0000 159387.0000 159395.0000 159435.0000 159503.0000 159531.0000 159559.0000 160095.0000 160111.0000 160151.0000 160207.0000 160303.0000 160311.0000 160395.0000 160411.0000 160415.0000 160459.0000 161031.0000 161107.0000 161115.0000 161163.0000 161195.0000 161211.0000 161219.0000 161311.0000 161387.0000 161439.0000 162059.0000 162915.0000 162935.0000 162987.0000 163031.0000 163051.0000 163103.0000 163147.0000 163203.0000 163315.0000 163331.0000 163395.0000 163443.0000 163451.0000 163787.0000 163875.0000 164127.0000 164759.0000 164767.0000 164915.0000 164939.0000 165035.0000 165067.0000 165099.0000 165167.0000 165171.0000 165207.0000 165299.0000 165767.0000 165771.0000 165855.0000 165863.0000 165903.0000 166679.0000 166791.0000 166859.0000 166903.0000 167059.0000 167471.0000 167727.0000 167747.0000 167803.0000 168511.0000 168611.0000 168619.0000 168935.0000 168975.0000 169147.0000 169599.0000 170159.0000 170199.0000 170207.0000 170211.0000 170227.0000 170299.0000 170383.0000 170527.0000 170563.0000 170571.0000 170823.0000 171139.0000 171247.0000 171259.0000 171263.0000 171359.0000 171811.0000 171823.0000 171827.0000 171967.0000 171983.0000 172083.0000 172099.0000 172103.0000 172107.0000 172111.0000 172115.0000 172119.0000 172163.0000 172219.0000 172263.0000 172323.0000 172639.0000 172711.0000 172799.0000 172855.0000 197319.0000 197311.0000 203239.0000 201755.0000 198543.0000 174991.0000 213711.0000 205907.0000 189911.0000 212091.0000 201727.0000 207667.0000 179895.0000 175079.0000 184803.0000 192599.0000 186427.0000 213439.0000 194039.0000 212059.0000 207371.0000 186419.0000 187983.0000 195523.0000 178207.0000 201451.0000 192575.0000 181567.0000 202911.0000 194015.0000 208843.0000 213427.0000 208831.0000 181559.0000 202899.0000 203159.0000 198475.0000 174935.0000 198467.0000 207335.0000 190987.0000 189587.0000 201707.0000 201407.0000 181543.0000 188219.0000 189851.0000 210359.0000 181535.0000 174915.0000 204307.0000 181515.0000 204655.0000 192523.0000 204651.0000 195771.0000 187947.0000 205851.0000 195435.0000 186555.0000 183259.0000 192487.0000 174895.0000 204611.0000 191331.0000 207623.0000 186291.0000 174883.0000 190907.0000 196971.0000 204291.0000 200207.0000 183247.0000 208763.0000 184691.0000 213675.0000 196951.0000 179811.0000 206107.0000 198699.0000 174867.0000 196939.0000 189763.0000 192415.0000 195375.0000 210279.0000 187895.0000 213335.0000 202807.0000 210503.0000 191295.0000 186255.0000 176559.0000 200167.0000 204559.0000 183031.0000 210219.0000 201259.0000 181615.0000 184871.0000 183019.0000 208983.0000 183015.0000 204223.0000 204531.0000 195671.0000 195335.0000 184627.0000 210483.0000 192743.0000 213631.0000 179743.0000 210179.0000 196879.0000 211955.0000 189471.0000 183003.0000 199871.0000 186195.0000 204507.0000 181395.0000 201627.0000 196859.0000 195315.0000 197195.0000 202751.0000 203075.0000 201619.0000 176491.0000 207535.0000 197187.0000 184587.0000 195295.0000 198307.0000 201183.0000 204191.0000 202731.0000 213259.0000 178027.0000 178023.0000 210159.0000 201163.0000 213247.0000 178019.0000 194163.0000 174731.0000 179699.0000 182943.0000 194151.0000 197155.0000 213231.0000 207127.0000 210143.0000 184547.0000 190795.0000 174715.0000 207123.0000 178007.0000 178003.0000 182919.0000 200131.0000 208631.0000 199807.0000 193771.0000 205663.0000 213575.0000 192311.0000 195227.0000 174679.0000 206011.0000 198259.0000 211907.0000 181291.0000 179623.0000 198235.0000 198631.0000 187739.0000 192287.0000 189371.0000 179599.0000 182879.0000 1937