<?xml version="1.0"?>
<VTKFile type="PolyData" version="1.0" byte_order="LittleEndian" header_type="UInt64">
<PolyData>
<Piece NumberOfPoints="1412" NumberOfVerts="0" NumberOfLines="0" NumberOfPolys="700">
    <Points>
        <DataArray type="Float32" NumberOfComponents="3" format="ascii">
        18.0 10.0 1.8 18.0 10.0 1.8 18.0 10.0 1.8 18.0 10.0 1.8 18.0 10.2 1.8 18.0 10.2 1.8 18.0 10.0 1.8 18.0 10.0 1.8 18.0 10.0 1.8 18.1 10.0 1.6 18.3 10.0 1.8 18.0 10.0 1.8 18.0 10.2 1.8 18.1 10.2 1.6 18.1 10.0 1.6 18.3 10.0 1.8 18.1 10.0 1.6 18.1 10.2 1.6 18.3 10.2 1.8 18.0 10.2 1.8 18.0 10.8 1.8 18.0 10.8 1.8 18.0 10.2 1.8 18.0 10.2 1.8 18.0 10.8 1.8 18.1 10.8 1.6 18.1 10.2 1.6 18.3 10.2 1.8 18.1 10.2 1.6 18.1 10.8 1.6 18.3 10.8 1.8 18.0 10.8 1.8 18.0 11.4 1.8 18.0 11.4 1.8 18.0 10.8 1.8 18.0 10.8 1.8 18.0 11.4 1.8 18.1 11.4 1.6 18.1 10.8 1.6 18.3 10.8 1.8 18.1 10.8 1.6 18.1 11.4 1.6 18.3 11.4 1.8 18.0 11.4 1.8 18.0 12.0 1.8 18.0 12.0 1.8 18.0 11.4 1.8 18.0 11.4 1.8 18.0 12.0 1.8 18.1 12.0 1.6 18.1 11.4 1.6 18.3 11.4 1.8 18.1 11.4 1.6 18.1 12.0 1.6 18.3 12.0 1.8 18.0 12.0 1.8 18.0 12.6 1.8 18.0 12.6 1.8 18.0 12.0 1.8 18.0 12.0 1.8 18.0 12.6 1.8 18.1 12.6 1.6 18.1 12.0 1.6 18.3 12.0 1.8 18.1 12.0 1.6 18.1 12.6 1.6 18.3 12.6 1.8 18.0 12.6 1.8 18.0 13.2 1.8 18.0 13.2 1.8 18.0 12.6 1.8 18.0 12.6 1.8 18.0 13.2 1.8 18.1 13.2 1.6 18.1 12.6 1.6 18.3 12.6 1.8 18.1 12.6 1.6 18.1 13.2 1.6 18.3 13.2 1.8 18.3 13.1 1.8 18.3 13.1 1.8 18.3 13.2 1.8 18.3 13.2 1.8 18.0 13.2 1.8 18.0 13.8 1.8 18.0 13.8 1.8 18.0 13.2 1.8 18.0 13.8 1.8 18.0 13.8 1.8 18.0 13.8 1.8 18.0 13.8 1.8 18.0 13.2 1.8 18.0 13.8 1.8 18.0 13.8 1.8 18.1 13.8 1.6 18.1 13.2 1.6 18.0 13.8 1.8 18.0 13.8 1.8 18.0 13.8 1.8 18.3 13.2 1.8 18.1 13.2 1.6 18.1 13.8 1.6 18.2 13.8 1.7 18.3 13.2 1.8 18.3 13.2 1.8 18.2 13.8 1.7 18.3 13.8 1.8 18.0 13.8 1.8 18.0 14.0 1.8 18.0 14.0 1.8 18.0 13.8 1.8 18.0 14.0 1.8 18.0 14.0 1.8 18.0 14.0 1.8 18.0 13.8 1.8 18.0 14.0 1.8 18.1 14.0 1.6 18.0 13.8 1.8 18.0 14.0 1.8 18.0 14.0 1.8 18.3 14.0 1.8 18.1 14.0 1.6 18.1 13.8 1.6 18.0 13.8 1.8 18.1 14.0 1.6 18.2 13.8 1.7 18.1 13.8 1.6 18.1 14.0 1.6 18.3 13.8 1.8 18.2 13.8 1.7 18.1 14.0 1.6 18.3 14.0 1.8 17.4 10.0 2.4 17.4 10.0 2.4 17.4 10.0 2.4 17.4 10.0 2.4 17.4 10.2 2.4 17.4 10.2 2.4 17.4 10.0 2.4 17.4 10.0 2.4 17.4 10.0 2.4 18.0 10.0 1.8 18.0 10.0 1.8 18.0 10.0 2.4 17.4 10.0 2.4 17.4 10.2 2.4 18.0 10.2 1.8 18.0 10.0 1.8 18.0 10.0 2.4 18.0 10.0 1.8 18.3 10.0 1.8 18.6 10.0 2.1 18.6 10.0 2.4 18.3 10.0 1.8 18.3 10.2 1.8 18.6 10.2 2.1 18.6 10.0 2.1 18.6 10.0 2.4 18.6 10.0 2.1 18.9 10.0 2.4 18.8 10.0 2.4 18.6 10.0 2.1 18.6 10.2 2.1 18.8 10.2 2.3 18.9 10.0 2.4 18.8 10.0 2.4 18.9 10.0 2.4 18.9 10.2 2.4 18.8 10.2 2.4 18.9 10.0 2.4 18.8 10.2 2.3 18.9 10.2 2.4 18.9 10.0 2.4 18.8 10.0 2.4 18.8 10.0 2.4 17.4 10.2 2.4 17.4 10.8 2.4 17.4 10.8 2.4 17.4 10.2 2.4 17.4 10.2 2.4 17.4 10.8 2.4 18.0 10.8 1.8 18.0 10.2 1.8 18.3 10.2 1.8 18.3 10.8 1.8 18.6 10.8 2.1 18.6 10.2 2.1 18.6 10.2 2.1 18.6 10.8 2.1 18.7 10.8 2.2 18.8 10.2 2.3 18.8 10.2 2.4 18.9 10.2 2.4 18.9 10.8 2.4 18.8 10.8 2.4 18.9 10.2 2.4 18.8 10.2 2.3 18.7 10.8 2.2 18.9 10.8 2.4 17.4 10.8 2.4 17.4 11.4 2.4 17.4 11.4 2.4 17.4 10.8 2.4 17.4 10.8 2.4 17.4 11.4 2.4 18.0 11.4 1.8 18.0 10.8 1.8 18.3 10.8 1.8 18.3 11.4 1.8 18.6 11.4 2.1 18.6 10.8 2.1 18.6 10.8 2.1 18.6 11.4 2.1 18.6 11.4 2.1 18.7 10.8 2.2 18.8 10.8 2.4 18.9 10.8 2.4 18.9 11.4 2.4 18.8 11.4 2.4 18.9 10.8 2.4 18.7 10.8 2.2 18.6 11.4 2.1 18.9 11.4 2.4 17.4 11.4 2.4 17.4 12.0 2.4 17.4 12.0 2.4 17.4 11.4 2.4 17.4 11.4 2.4 17.4 12.0 2.4 18.0 12.0 1.8 18.0 11.4 1.8 18.3 11.4 1.8 18.3 12.0 1.8 18.5 12.0 2.0 18.6 11.4 2.1 18.6 11.4 2.1 18.5 12.0 2.0 18.6 12.0 2.1 18.6 11.4 2.1 18.6 11.4 2.1 18.6 11.4 2.1 18.6 11.4 2.1 18.6 11.4 2.1 18.6 12.0 2.1 18.9 12.0 2.4 18.9 11.4 2.4 18.6 11.4 2.1 18.8 11.4 2.4 18.9 11.4 2.4 18.9 12.0 2.4 18.8 12.0 2.4 17.4 12.0 2.4 17.4 12.6 2.4 17.4 12.6 2.4 17.4 12.0 2.4 17.4 12.0 2.4 17.4 12.6 2.4 18.0 12.6 1.8 18.0 12.0 1.8 18.5 12.0 2.0 18.4 12.6 1.9 18.6 12.6 2.1 18.6 12.0 2.1 18.5 12.0 2.0 18.3 12.0 1.8 18.3 12.6 1.8 18.4 12.6 1.9 18.6 12.0 2.1 18.6 12.6 2.1 18.9 12.6 2.4 18.9 12.0 2.4 18.8 12.0 2.4 18.9 12.0 2.4 18.9 12.6 2.4 18.8 12.6 2.4 17.4 12.6 2.4 17.4 12.9 2.4 17.4 12.9 2.4 17.4 12.6 2.4 17.4 12.9 2.4 17.4 13.2 2.4 17.4 13.2 2.4 17.4 12.9 2.4 17.4 12.6 2.4 17.4 12.9 2.4 17.6 13.2 2.2 18.0 13.2 1.8 18.0 12.6 1.8 17.4 12.9 2.4 17.4 13.2 2.4 17.6 13.2 2.2 18.4 12.6 1.9 18.3 13.1 1.8 18.3 13.2 1.8 18.6 13.2 2.1 18.6 12.6 2.1 18.4 12.6 1.9 18.3 12.6 1.8 18.3 13.1 1.8 18.6 12.6 2.1 18.6 13.2 2.1 18.9 13.2 2.4 18.9 12.6 2.4 18.8 12.6 2.4 18.9 12.6 2.4 18.9 13.2 2.4 18.8 13.2 2.4 17.4 13.2 2.4 17.4 13.8 2.4 17.4 13.8 2.4 17.4 13.2 2.4 17.4 13.2 2.4 17.4 13.8 2.4 18.0 13.8 1.8 18.0 13.8 1.8 17.6 13.2 2.2 18.0 13.2 1.8 17.6 13.2 2.2 18.0 13.8 1.8 18.3 13.2 1.8 18.3 13.8 1.8 18.6 13.8 2.1 18.6 13.2 2.1 18.6 13.2 2.1 18.6 13.8 2.1 18.9 13.8 2.4 18.9 13.2 2.4 18.8 13.2 2.4 18.9 13.2 2.4 18.9 13.8 2.4 18.8 13.8 2.4 17.4 13.8 2.4 17.4 14.0 2.4 17.4 14.0 2.4 17.4 13.8 2.4 17.4 14.0 2.4 17.4 14.0 2.4 17.4 14.0 2.4 17.4 13.8 2.4 17.4 14.0 2.4 18.0 14.0 1.8 18.0 13.8 1.8 17.4 14.0 2.4 17.4 14.0 2.4 18.0 14.0 2.4 18.0 14.0 1.8 18.0 14.0 1.8 18.0 14.0 1.8 18.0 14.0 2.4 18.6 14.0 2.4 18.6 14.0 2.1 18.3 14.0 1.8 18.3 13.8 1.8 18.3 14.0 1.8 18.6 14.0 2.1 18.6 13.8 2.1 18.6 13.8 2.1 18.6 14.0 2.1 18.9 14.0 2.4 18.9 13.8 2.4 18.6 14.0 2.1 18.6 14.0 2.4 18.8 14.0 2.4 18.9 14.0 2.4 18.8 13.8 2.4 18.9 13.8 2.4 18.9 14.0 2.4 18.8 13.9 2.4 18.9 14.0 2.4 18.8 14.0 2.4 18.8 13.9 2.4 18.9 14.0 2.4 18.8 14.0 2.4 18.8 14.0 2.4 16.8 10.0 3.0 16.8 10.0 3.0 16.8 10.0 3.0 16.8 10.0 3.0 16.8 10.2 3.0 16.8 10.2 3.0 16.8 10.0 3.0 16.8 10.0 3.0 16.8 10.0 3.0 17.4 10.0 2.4 17.4 10.0 2.4 17.4 10.0 3.0 16.8 10.0 3.0 16.8 10.2 3.0 17.4 10.2 2.4 17.4 10.0 2.4 17.4 10.0 3.0 17.4 10.0 2.4 18.0 10.0 2.4 18.0 10.0 2.9 17.8 10.0 3.0 17.8 10.0 3.0 18.0 10.0 2.9 18.0 10.0 3.0 18.0 10.0 2.9 18.0 10.0 2.4 18.6 10.0 2.4 18.6 10.0 2.5 18.0 10.0 3.0 18.0 10.0 2.9 18.6 10.0 2.5 18.6 10.0 2.6 18.2 10.0 3.0 18.2 10.2 3.0 18.2 10.0 3.0 18.6 10.0 2.6 18.6 10.2 2.6 18.6 10.0 2.5 18.6 10.0 2.4 18.8 10.0 2.4 18.6 10.0 2.6 18.6 10.0 2.5 18.8 10.0 2.4 18.8 10.0 2.4 18.6 10.2 2.6 18.6 10.0 2.6 18.8 10.0 2.4 18.8 10.2 2.4 16.8 10.2 3.0 16.8 10.8 3.0 16.8 10.8 3.0 16.8 10.2 3.0 16.8 10.2 3.0 16.8 10.8 3.0 17.4 10.8 2.4 17.4 10.2 2.4 18.2 10.8 3.0 18.2 10.2 3.0 18.6 10.2 2.6 18.6 10.8 2.6 18.6 10.8 2.6 18.6 10.2 2.6 18.8 10.2 2.4 18.8 10.8 2.4 16.8 10.8 3.0 16.8 11.4 3.0 16.8 11.4 3.0 16.8 10.8 3.0 16.8 10.8 3.0 16.8 11.4 3.0 17.4 11.4 2.4 17.4 10.8 2.4 18.2 11.4 3.0 18.2 10.8 3.0 18.6 10.8 2.6 18.6 11.4 2.6 18.6 11.4 2.6 18.6 10.8 2.6 18.8 10.8 2.4 18.8 11.4 2.4 16.8 11.4 3.0 16.8 12.0 3.0 16.8 12.0 3.0 16.8 11.4 3.0 16.8 11.4 3.0 16.8 12.0 3.0 17.4 12.0 2.4 17.4 11.4 2.4 18.2 12.0 3.0 18.2 11.4 3.0 18.6 11.4 2.6 18.6 12.0 2.6 18.6 12.0 2.6 18.6 11.4 2.6 18.8 11.4 2.4 18.8 12.0 2.4 16.8 12.0 3.0 16.8 12.1 3.0 16.8 12.1 3.0 16.8 12.0 3.0 16.8 12.1 3.0 16.8 12.6 3.0 16.8 12.6 3.0 16.8 12.1 3.0 16.8 12.0 3.0 16.8 12.1 3.0 17.2 12.6 2.6 17.4 12.6 2.4 17.4 12.0 2.4 16.8 12.1 3.0 16.8 12.6 3.0 17.2 12.6 2.6 18.2 12.6 3.0 18.2 12.0 3.0 18.6 12.0 2.6 18.6 12.6 2.6 18.6 12.6 2.6 18.6 12.0 2.6 18.8 12.0 2.4 18.8 12.6 2.4 16.8 12.6 3.0 16.8 13.2 3.0 16.8 13.2 3.0 16.8 12.6 3.0 16.8 12.6 3.0 16.8 13.2 3.0 17.4 13.2 2.4 17.4 12.9 2.4 17.2 12.6 2.6 17.4 12.6 2.4 17.2 12.6 2.6 17.4 12.9 2.4 18.3 13.2 2.9 18.2 13.1 3.0 18.2 12.6 3.0 18.6 12.6 2.6 18.6 13.2 2.6 18.2 13.1 3.0 18.3 13.2 2.9 18.2 13.2 3.0 18.6 13.2 2.6 18.6 12.6 2.6 18.8 12.6 2.4 18.8 13.2 2.4 16.8 13.2 3.0 16.8 13.8 3.0 16.8 13.8 3.0 16.8 13.2 3.0 16.8 13.2 3.0 16.8 13.8 3.0 17.4 13.8 2.4 17.4 13.2 2.4 18.3 13.2 2.9 18.6 13.2 2.6 18.6 13.6 2.6 18.2 13.8 3.0 18.2 13.2 3.0 18.3 13.2 2.9 18.6 13.6 2.6 18.6 13.8 2.6 18.6 13.6 2.6 18.6 13.2 2.6 18.8 13.2 2.4 18.8 13.8 2.4 18.7 13.8 2.5 18.6 13.8 2.6 18.6 13.6 2.6 18.7 13.8 2.5 16.8 13.8 3.0 16.8 14.0 3.0 16.8 14.0 3.0 16.8 13.8 3.0 16.8 14.0 3.0 16.8 14.0 3.0 16.8 14.0 3.0 16.8 13.8 3.0 16.8 14.0 3.0 17.4 14.0 2.4 17.4 13.8 2.4 16.8 14.0 3.0 16.8 14.0 3.0 17.4 14.0 3.0 17.4 14.0 2.4 17.4 14.0 2.4 17.4 14.0 2.4 17.4 14.0 3.0 17.8 14.0 3.0 18.0 14.0 2.9 18.0 14.0 2.4 17.8 14.0 3.0 18.0 14.0 3.0 18.0 14.0 2.9 18.0 14.0 2.4 18.0 14.0 2.9 18.6 14.0 2.5 18.6 14.0 2.4 18.0 14.0 2.9 18.0 14.0 3.0 18.2 14.0 3.0 18.6 14.0 2.6 18.6 14.0 2.5 18.2 14.0 3.0 18.2 13.8 3.0 18.6 13.8 2.6 18.6 14.0 2.6 18.6 14.0 2.4 18.6 14.0 2.5 18.8 14.0 2.4 18.6 14.0 2.6 18.6 13.8 2.6 18.7 13.8 2.5 18.8 13.9 2.4 18.8 14.0 2.4 18.6 14.0 2.5 18.6 14.0 2.6 18.8 14.0 2.4 18.8 14.0 2.4 18.7 13.8 2.5 18.8 13.8 2.4 18.8 13.9 2.4 16.2 10.0 3.6 16.2 10.0 3.6 16.2 10.0 3.6 16.2 10.0 3.6 16.2 10.2 3.6 16.2 10.2 3.6 16.2 10.0 3.6 16.2 10.0 3.6 16.2 10.0 3.6 16.8 10.0 3.0 16.8 10.0 3.0 16.8 10.0 3.6 16.8 10.0 3.6 16.2 10.0 3.6 16.2 10.2 3.6 16.8 10.2 3.0 16.8 10.0 3.0 16.8 10.0 3.6 16.8 10.0 3.6 16.8 10.0 3.6 16.8 10.0 3.6 16.8 10.0 3.0 17.4 10.0 3.0 17.4 10.0 3.2 16.8 10.0 3.6 16.8 10.0 3.6 17.4 10.0 3.2 17.4 10.0 3.6 17.4 10.0 3.2 17.4 10.0 3.0 17.8 10.0 3.0 17.4 10.0 3.6 17.4 10.0 3.2 17.8 10.0 3.0 18.0 10.0 3.0 18.0 10.0 3.2 17.6 10.0 3.6 17.6 10.2 3.6 17.6 10.0 3.6 18.0 10.0 3.2 18.0 10.2 3.2 18.0 10.0 3.2 18.0 10.0 3.0 18.2 10.0 3.0 18.0 10.2 3.2 18.0 10.0 3.2 18.2 10.0 3.0 18.2 10.2 3.0 16.2 10.2 3.6 16.2 10.8 3.6 16.2 10.8 3.6 16.2 10.2 3.6 16.2 10.2 3.6 16.2 10.8 3.6 16.8 10.8 3.0 16.8 10.2 3.0 17.6 10.8 3.6 17.6 10.2 3.6 18.0 10.2 3.2 18.0 10.8 3.2 18.0 10.8 3.2 18.0 10.2 3.2 18.2 10.2 3.0 18.2 10.8 3.0 16.2 10.8 3.6 16.2 11.2 3.6 16.2 11.2 3.6 16.2 10.8 3.6 16.2 11.2 3.6 16.2 11.4 3.6 16.2 11.4 3.6 16.2 11.2 3.6 16.2 10.8 3.6 16.2 11.2 3.6 16.3 11.4 3.5 16.8 11.4 3.0 16.8 10.8 3.0 16.2 11.2 3.6 16.2 11.4 3.6 16.3 11.4 3.5 17.6 11.4 3.6 17.6 10.8 3.6 18.0 10.8 3.2 18.0 11.4 3.2 18.0 11.4 3.2 18.0 10.8 3.2 18.2 10.8 3.0 18.2 11.4 3.0 16.2 11.4 3.6 16.2 12.0 3.6 16.2 12.0 3.6 16.2 11.4 3.6 16.2 11.4 3.6 16.2 12.0 3.6 16.7 12.0 3.1 16.3 11.4 3.5 16.8 11.4 3.0 16.3 11.4 3.5 16.7 1
[...]
    <CellData>
        <DataArray type="Float32" Name="WALL TEMPERATURE" format="ascii">
            76.3 103.7 103.7 343.0 343.0 193.4 193.4 180.5 180.5 163.3 163.3 302.8 302.8 287.3 287.3 277.5 277.5 471.1 471.1 464.1 464.1 468.1 468.1 763.9 763.9 863.8 863.8 757.8 757.8 979.9 979.9 1077.2 1077.2 940.2 940.2 1067.9 1067.9 1122.2 1122.2 1122.2 1122.2 714.6 714.6 714.6 714.6 963.0 963.0 963.0 943.7 1073.2 1073.2 1073.2 1073.2 417.3 417.3 149.8 702.5 702.5 748.8 748.8 718.5 790.2 790.2 790.2 74.9 75.2 75.2 176.6 176.6 176.6 90.5 90.5 304.0 304.0 304.0 160.6 160.6 306.1 306.1 139.3 139.3 174.7 174.7 139.3 306.1 111.7 111.7 138.7 138.7 259.3 259.3 228.8 228.8 275.9 275.9 228.8 228.8 197.4 197.4 241.1 241.1 431.7 431.7 395.4 395.4 435.8 435.8 395.4 395.4 360.2 360.2 422.6 422.6 818.3 818.3 818.3 817.9 764.8 764.8 764.8 764.8 692.6 692.6 566.4 566.4 681.9 681.9 984.3 984.3 984.9 984.9 864.1 864.1 807.7 807.7 689.7 689.7 689.7 689.7 958.5 958.5 958.5 865.4 1020.8 1020.8 1020.8 1021.2 890.2 890.2 847.5 847.5 571.9 571.9 696.2 696.2 696.2 746.1 979.6 979.6 862.2 862.2 830.3 830.3 329.6 329.6 143.6 381.6 381.6 360.3 360.3 360.3 653.2 653.2 653.2 731.5 731.5 657.4 657.4 654.5 654.5 692.2 692.2 688.1 654.5 70.1 60.7 60.7 134.1 134.1 134.1 68.2 68.2 63.4 63.4 63.4 63.4 166.7 166.7 166.7 166.7 166.7 90.1 90.1 226.0 226.0 226.0 103.5 103.5 85.8 85.8 98.8 98.8 136.9 136.9 160.1 160.1 146.4 146.4 173.7 173.7 240.4 240.4 276.8 276.8 272.2 272.2 324.4 324.4 416.6 416.6 461.6 461.6 429.7 429.7 429.7 429.7 588.9 588.9 588.9 532.0 566.5 566.5 602.5 602.5 536.3 536.3 662.8 662.8 662.8 721.2 651.4 651.4 651.4 638.9 691.7 691.7 461.9 461.9 533.5 533.5 612.9 604.9 604.9 604.9 652.5 652.5 652.5 652.5 252.9 252.9 126.5 297.4 297.4 279.6 279.6 279.6 111.9 111.9 111.9 111.9 347.1 347.1 347.1 347.1 347.1 433.4 433.4 485.4 488.5 488.5 488.5 485.4 485.4 550.2 59.7 49.9 49.9 104.1 104.1 104.1 104.1 55.6 55.6 104.1 70.9 70.9 70.9 70.9 106.4 106.4 106.4 106.4 106.4 68.6 68.6 162.8 74.5 74.5 67.4 67.4 76.4 76.4 98.8 98.8 110.3 110.3 105.8 105.8 105.8 105.8 151.7 151.7 151.7 132.5 171.4 171.4 193.2 193.2 206.8 206.8 264.1 264.1 278.3 278.3 318.7 318.7 349.9 349.9 334.3 334.3 398.1 398.1 398.1 432.9 477.1 477.1 477.1 435.9 500.7 500.7 405.1 405.1 488.3 488.3 532.6 509.4 509.4 509.4 547.2 547.2 547.2 547.2 353.7 353.7 422.7 422.7 471.3 471.3 517.4 517.4 178.0 178.0 93.4 222.1 222.1 211.7 211.7 211.7 211.7 211.7 134.7 134.7 134.7 134.7 194.2 194.2 194.2 194.2 194.2 308.1 308.1 361.4 361.4 332.7 43.1 41.4 41.4 75.2 75.2 75.2 75.2 46.0 46.0 75.2 63.5 63.5 63.5 63.5 72.3 72.3 72.3 56.6 56.6 104.1 61.5 61.5 53.4 53.4 53.4 53.4 68.7 68.7 68.7 62.0 76.9 76.9 86.6 86.6 78.0 78.0 101.1 101.1 101.1 109.0 137.0 137.0 137.0 117.7 144.9 144.9 148.9 148.9 181.7 181.7 253.5 248.1 248.1 248.1 274.2 274.2 274.2 330.6 235.0 235.0 299.8 299.8 365.2 365.2 403.9 403.9 403.9 403.9 272.4 272.4 354.8 354.8 388.9 388.9 425.0 425.0 233.8 233.8 304.9 304.9 346.9 346.9 390.6 390.6 107.6 107.6 55.5 146.4 146.4 142.2 142.2 142.2 142.2 142.2 110.1 110.1 110.1 110.1 115.9 115.9 115.9 207.3 207.3 243.0 243.0 188.4 54.4 54.4 54.4 102.0 102.0 45.7 45.7 45.7 58.5 58.5 58.5 58.5 58.5 94.9 94.9 52.1 52.1 52.1 48.0 48.0 65.7 50.8 50.8 159.7 159.7 60.8 60.8 60.8 60.8 149.6 149.6 64.9 64.9 64.9 58.8 67.0 67.0 253.9 253.9 95.3 95.3 244.9 244.9 99.1 95.2 95.2 95.2 103.4 103.4 103.4 103.4 390.7 390.7 170.2 170.2 379.1 379.1 169.5 169.5 196.2 196.2 465.1 465.1 465.1 451.7 248.4 248.4 449.1 449.1 449.1 449.1 263.8 263.8 304.3 304.3 480.3 480.3 277.4 277.4 495.3 495.3 474.5 474.5 275.7 275.7 318.3 318.3 473.5 473.5 240.1 240.1 473.5 473.5 450.5 450.5 230.4 230.4 271.6 271.6 89.6 89.6 371.5 371.5 89.6 136.9 136.9 371.5 94.2 351.0 351.0 94.2 94.2 94.2 94.2 79.0 79.0 79.0 135.9 135.9 158.3 158.3 103.2 54.3 54.3 47.3 47.3 86.9 86.9 47.3 86.9 49.1 44.2 44.2 60.9 60.9 60.9 60.9 139.4 139.4 139.4 139.4 54.4 54.4 54.4 54.4 93.1 93.1 234.0 234.0 234.0 234.0 78.0 78.0 160.2 160.2 377.5 377.5 358.7 358.7 138.1 138.1 221.9 221.9 443.1 423.9 423.9 423.9 206.1 206.1 225.0 225.0 441.9 441.9 205.9 205.9 190.4 190.4 420.4 420.4 170.8 170.8 123.0 123.0 89.1 89.1 327.0 327.0 105.1 105.1 71.4 
         </DataArray>
        <DataArray type="Float32" Name="water drops AMPUA" format="ascii">
            0.0 0.0 0.0 0.0 0.0 0.0 0.0 0.0 0.0 0.0 0.0 0.0 0.0 0.0 0.0 0.0 0.0 0.0 0.0 0.0 0.0 0.0 0.0 0.0 0.0 0.0 0.0 0.0 0.0 0.0 0.0 0.0 0.0 0.0 0.0 0.0 0.0 0.0 0.0 0.0 0.0 0.0 0.0 0.0 0.0 0.0 0.0 0.0 0.0 0.0 0.0 0.0 0.0 0.0 0.0 0.0 0.0 0.0 0.0 0.0 0.0 0.0 0.0 0.0 0.0 0.0 0.0 0.0 0.0 0.0 0.0 0.0 0.0 0.0 0.0 0.0 0.0 0.0 0.0 0.0 0.0 0.0 0.0 0.0 0.0 0.0 0.0 0.0 0.0 0.0 0.0 0.0 0.0 0.0 0.0 0.0 0.0 0.0 0.0 0.0 0.0 0.0 0.0 0.0 0.0 0.0 0.0 0.0 0.0 0.0 0.0 0.0 0.0 0.0 0.0 0.0 0.0 0.0 0.0 0.0 0.0 0.0 0.0 0.0 0.0 0.0 0.0 0.0 0.0 0.0 0.0 0.0 0.0 0.0 0.0 0.0 0.0 0.0 0.0 0.0 0.0 0.0 0.0 0.0 0.0 0.0 0.0 0.0 0.0 0.0 0.0 0.0 0.0 0.0 0.0 0.0 0.0 0.0 0.0 0.0 0.0 0.0 0.0 0.0 0.0 0.0 0.0 0.0 0.0 0.0 0.0 0.0 0.0 0.0 0.0 0.0 0.0 0.0 0.0 0.0 0.0 0.0 0.0 0.0 0.0 0.0 0.0 0.0 0.0 0.0 0.0 0.0 0.0 0.0 0.0 0.0 0.0 0.0 0.0 0.0 0.0 0.0 0.0 0.0 0.0 0.0 0.0 0.0 0.0 0.0 0.0 0.0 0.0 0.0 0.0 0.0 0.0 0.0 0.0 0.0 0.0 0.0 0.0 0.0 0.0 0.0 0.0 0.0 0.0 0.0 0.0 0.0 0.0 0.0 0.0 0.0 0.0 0.0 0.0 0.0 0.0 0.0 0.0 0.0 0.0 0.0 0.0 0.0 0.0 0.0 0.0 0.0 0.0 0.0 0.0 0.0 0.0 0.0 0.0 0.0 0.0 0.0 0.0 0.0 0.0 0.0 0.0 0.0 0.0 0.0 0.0 0.0 0.0 0.0 0.0 0.0 0.0 0.0 0.0 0.0 0.0 0.0 0.0 0.0 0.0 0.0 0.0 0.0 0.0 0.0 0.0 0.0 0.0 0.0 0.0 0.0 0.0 0.0 0.0 0.0 0.0 0.0 0.0 0.0 0.0 0.0 0.0 0.0 0.0 0.0 0.0 0.0 0.0 0.0 0.0 0.0 0.0 0.0 0.0 0.0 0.0 0.0 0.0 0.0 0.0 0.0 0.0 0.0 0.0 0.0 0.0 0.0 0.0 0.0 0.0 0.0 0.0 0.0 0.0 0.0 0.0 0.0 0.0 0.0 0.0 0.0 0.0 0.0 0.0 0.0 0.0 0.0 0.0 0.0 0.0 0.0 0.0 0.0 0.0 0.0 0.0 0.0 0.0 0.0 0.0 0.0 0.0 0.0 0.0 0.0 0.0 0.0 0.0 0.0 0.0 0.0 0.0 0.0 0.0 0.0 0.0 0.0 0.0 0.0 0.0 0.0 0.0 0.0 0.0 0.0 0.0 0.0 0.0 0.0 0.0 0.0 0.0 0.0 0.0 0.0 0.0 0.0 0.0 0.0 0.0 0.0 0.0 0.0 0.0 0.0 0.0 0.0 0.0 0.0 0.0 0.0 0.0 0.0 0.0 0.0 0.0 0.0 0.0 0.0 0.0 0.0 0.0 0.0 0.0 0.0 0.0 0.0 0.0 0.0 0.0 0.0 0.0 0.0 0.0 0.0 0.0 0.0 0.0 0.0 0.0 0.0 0.0 0.0 0.0 0.0 0.0 0.0 0.0 0.0 0.0 0.0 0.0 0.0 0.0 0.0 0.0 0.0 0.0 0.0 0.0 0.0 0.0 0.0 0.0 0.0 0.0 0.0 0.0 0.0 0.0 0.0 0.0 0.0 0.0 0.0 0.0 0.0 0.0 0.0 0.0 0.0 0.0 0.0 0.0 0.0 0.0 0.0 0.0 0.0 0.0 0.0 0.0 0.0 0.0 0.0 0.0 0.0 0.0 0.0 0.0 0.0 0.0 0.0 0.0 0.0 0.0 0.0 0.0 0.0 0.0 0.0 0.0 0.0 0.0 0.0 0.0 0.0 0.0 0.0 0.0 0.0 0.0 0.0 0.0 0.0 0.0 0.0 0.0 0.0 0.0 0.0 0.0 0.0 0.0 0.0 0.0 0.0 0.0 0.0 0.0 0.0 0.0 0.0 0.0 0.0 0.0 0.0 0.0 0.0 0.0 0.0 0.0 0.0 0.0 0.0 0.0 0.0 0.0 0.0 0.0 0.0 0.0 0.0 0.0 0.0 0.0 0.0 0.0 0.0 0.0 0.0 0.0 0.0 0.0 0.0 0.0 0.0 0.0 0.0 0.0 0.0 0.0 0.0 0.0 0.0 0.0 0.0 0.0 0.0 0.0 0.0 0.0 0.0 0.0 0.0 0.0 0.0 0.0 0.0 0.0 0.0 0.0 0.0 0.0 0.0 0.0 0.0 0.0 0.0 0.0 0.0 0.0 0.0 0.0 0.0 0.0 0.0 0.0 0.0 0.0 0.0 0.0 0.0 0.0 0.0 0.0 0.0 0.0 0.0 0.0 0.0 0.0 0.0 0.0 0.0 0.0 0.0 0.0 0.0 0.0 0.0 0.0 0.0 0.0 0.0 0.0 0.0 0.0 0.0 0.0 0.0 0.0 0.0 0.0 0.0 0.0 0.0 0.0 0.0 0.0 0.0 0.0 0.0 0.0 0.0 0.0 0.0 0.0 0.0 0.0 0.0 0.0 0.0 0.0 0.0 0.0 0.0 0.0 0.0 0.0 0.0 0.0 0.0 0.0 0.0 0.0 0.0 0.0 0.0 0.0 0.0 0.0 0.0 0.0 0.0 
         </DataArray>
        <DataArray type="Float32" Name="GAS TEMPERATURE" format="ascii">
            26.4 26.4 26.4 28.6 28.6 28.6 28.6 28.6 28.6 32.7 32.7 34.9 34.9 34.9 34.9 57.1 57.1 56.6 56.6 56.6 56.6 176.6 176.6 166.2 166.2 166.2 166.2 412.2 412.2 553.8 553.8 553.8 553.8 476.0 476.0 557.8 557.8 557.8 557.8 557.8 557.8 368.7 368.7 368.7 368.7 438.6 438.6 438.6 438.6 438.6 438.6 438.6 438.6 75.9 75.9 75.9 83.1 83.1 83.1 83.1 83.1 83.1 83.1 83.1 26.1 26.1 26.1 28.1 28.1 28.1 28.1 28.1 31.3 31.3 31.3 31.3 31.3 29.4 29.4 29.4 29.4 29.4 29.4 29.4 29.4 33.2 33.2 32.7 32.7 36.5 36.5 36.5 36.5 36.5 36.5 36.5 36.5 76.9 76.9 57.1 57.1 58.3 58.3 58.3 58.3 58.3 58.3 58.3 58.3 217.6 217.6 176.6 176.6 158.2 158.2 158.2 158.2 158.2 158.2 158.2 158.2 158.2 158.2 357.5 357.5 412.2 412.2 476.3 476.3 476.3 476.3 476.3 476.3 476.3 476.3 390.3 390.3 390.3 390.3 476.0 476.0 476.0 476.0 468.7 468.7 468.7 468.7 468.7 468.7 468.7 468.7 292.0 292.0 368.7 368.7 368.7 368.7 227.6 227.6 227.6 227.6 227.6 227.6 118.8 118.8 118.8 115.9 115.9 115.9 115.9 115.9 113.4 113.4 113.4 113.4 113.4 69.1 69.1 69.1 69.1 69.1 69.1 69.1 69.1 26.1 26.1 26.1 26.0 26.0 26.0 26.0 26.0 26.2 26.2 26.2 26.2 28.5 28.5 28.5 28.5 28.5 28.5 28.5 28.4 28.4 28.4 28.4 28.4 33.2 33.2 33.2 33.2 32.3 32.3 32.3 32.3 66.9 66.9 76.9 76.9 43.2 43.2 43.2 43.2 162.2 162.2 217.6 217.6 112.9 112.9 112.9 112.9 296.1 296.1 296.1 296.1 357.5 357.5 357.5 357.5 394.1 394.1 394.1 394.1 355.8 355.8 390.3 390.3 390.3 390.3 414.1 414.1 414.1 414.1 414.1 414.1 290.7 290.7 292.0 292.0 223.1 223.1 223.1 223.1 223.1 223.1 223.1 223.1 135.6 135.6 135.6 155.0 155.0 155.0 155.0 155.0 107.7 107.7 107.7 107.7 148.1 148.1 148.1 148.1 148.1 148.1 148.1 102.8 102.8 102.8 102.8 102.8 102.8 102.8 25.7 25.7 25.7 27.1 27.1 27.1 27.1 27.1 27.1 27.1 26.3 26.3 26.3 26.3 25.6 25.6 25.6 25.6 25.6 25.6 25.6 26.7 26.7 26.7 31.2 31.2 33.2 33.2 28.3 28.3 28.3 28.3 48.1 48.1 48.1 48.1 66.9 66.9 66.9 66.9 34.1 34.1 34.1 34.1 87.5 87.5 162.2 162.2 162.2 162.2 78.8 78.8 78.8 78.8 208.7 208.7 296.1 296.1 296.1 296.1 154.1 154.1 154.1 154.1 154.1 154.1 269.9 269.9 355.8 355.8 291.8 291.8 291.8 291.8 291.8 291.8 291.8 291.8 276.7 276.7 290.7 290.7 263.9 263.9 263.9 263.9 189.6 189.6 189.6 206.8 206.8 206.8 206.8 206.8 206.8 206.8 147.3 147.3 147.3 147.3 107.4 107.4 107.4 107.4 107.4 107.4 107.4 144.4 144.4 144.4 24.0 24.0 24.0 25.9 25.9 25.9 25.9 25.9 25.9 25.9 26.1 26.1 26.1 26.1 26.0 26.0 26.0 26.0 26.0 25.3 25.3 25.3 27.7 27.7 27.7 27.7 31.2 31.2 31.2 31.2 27.2 27.2 27.2 27.2 33.3 33.3 48.1 48.1 48.1 48.1 30.6 30.6 30.6 30.6 30.6 30.6 50.3 50.3 87.5 87.5 53.7 53.7 53.7 53.7 53.7 53.7 53.7 53.7 160.1 160.1 208.7 208.7 78.9 78.9 78.9 78.9 78.9 78.9 233.7 233.7 269.9 269.9 214.3 214.3 214.3 214.3 241.5 241.5 276.7 276.7 229.3 229.3 229.3 229.3 98.8 98.8 98.8 185.2 185.2 185.2 185.2 185.2 185.2 185.2 203.3 203.3 203.3 203.3 145.6 145.6 145.6 145.6 145.6 99.0 99.0 99.0 24.3 24.3 24.3 24.3 24.3 24.3 24.3 24.3 24.9 24.9 24.9 24.9 24.9 24.9 24.9 24.7 24.7 24.7 24.7 24.7 25.1 25.1 25.1 27.4 27.4 27.4 27.4 27.4 27.4 27.4 27.4 26.7 26.7 26.7 26.7 26.7 26.7 29.3 29.3 29.3 29.3 32.8 32.8 30.0 30.0 30.0 30.0 30.0 30.0 30.0 30.0 37.8 37.8 37.8 37.8 42.3 42.3 40.1 40.1 40.1 40.1 90.0 90.0 90.0 90.0 90.0 90.0 64.3 64.3 64.3 64.3 48.6 48.6 48.6 48.6 199.0 199.0 199.0 199.0 199.0 199.0 115.6 115.6 160.4 160.4 160.4 160.4 224.8 224.8 224.8 224.8 224.8 224.8 146.8 146.8 179.9 179.9 179.9 179.9 94.8 94.8 94.8 94.8 94.8 94.8 94.8 94.8 97.3 97.3 97.3 97.3 97.3 97.3 97.3 195.4 195.4 195.4 195.4 195.4 137.2 137.2 137.2 24.1 24.1 24.1 24.1 24.1 24.1 24.1 24.1 23.9 23.9 23.9 27.4 27.4 27.4 27.4 27.4 27.4 27.4 27.4 25.8 25.8 25.8 25.8 32.8 32.8 32.8 32.8 32.8 32.8 31.8 31.8 42.3 42.3 42.3 42.3 42.3 42.3 37.1 37.1 64.3 64.3 64.3 64.3 64.3 64.3 63.6 63.6 115.6 115.6 115.6 115.6 139.0 139.0 146.8 146.8 146.8 146.8 157.5 157.5 79.4 79.4 79.4 79.4 79.4 79.4 170.3 170.3 170.3 
         </DataArray>
        <DataArray type="Float32" Name="HRRPUA" format="ascii">
            0.0 0.0 0.0 0.0 0.0 0.0 0.0 0.0 0.0 0.0 0.0 0.0 0.0 0.0 0.0 0.0 0.0 0.0 0.0 0.0 0.0 0.0 0.0 0.0 0.0 0.0 0.0 0.0 0.0 0.0 0.0 0.0 0.0 0.0 0.0 0.0 0.0 0.0 0.0 0.0 0.0 0.0 0.0 0.0 0.0 0.0 0.0 0.0 0.0 0.0 0.0 0.0 0.0 0.0 0.0 0.0 0.0 0.0 0.0 0.0 0.0 0.0 0.0 0.0 0.0 0.0 0.0 0.0 0.0 0.0 0.0 0.0 0.0 0.0 0.0 0.0 0.0 0.0 0.0 0.0 0.0 0.0 0.0 0.0 0.0 0.0 0.0 0.0 0.0 0.0 0.0 0.0 0.0 0.0 0.0 0.0 0.0 0.0 0.0 0.0 0.0 0.0 0.0 0.0 0.0 0.0 0.0 0.0 0.0 0.0 0.0 0.0 0.0 0.0 0.0 0.0 0.0 0.0 0.0 0.0 0.0 0.0 0.0 0.0 0.0 0.0 0.0 0.0 0.0 0.0 0.0 0.0 0.0 0.0 0.0 0.0 0.0 0.0 0.0 0.0 0.0 0.0 0.0 0.0 0.0 0.0 0.0 0.0 0.0 0.0 0.0 0.0 0.0 0.0 0.0 0.0 0.0 0.0 0.0 0.0 0.0 0.0 0.0 0.0 0.0 0.0 0.0 0.0 0.0 0.0 0.0 0.0 0.0 0.0 0.0 0.0 0.0 0.0 0.0 0.0 0.0 0.0 0.0 0.0 0.0 0.0 0.0 0.0 0.0 0.0 0.0 0.0 0.0 0.0 0.0 0.0 0.0 0.0 0.0 0.0 0.0 0.0 0.0 0.0 0.0 0.0 0.0 0.0 0.0 0.0 0.0 0.0 0.0 0.0 0.0 0.0 0.0 0.0 0.0 0.0 0.0 0.0 0.0 0.0 0.0 0.0 0.0 0.0 0.0 0.0 0.0 0.0 0.0 0.0 0.0 0.0 0.0 0.0 0.0 0.0 0.0 0.0 0.0 0.0 0.0 0.0 0.0 0.0 0.0 0.0 0.0 0.0 0.0 0.0 0.0 0.0 0.0 0.0 0.0 0.0 0.0 0.0 0.0 0.0 0.0 0.0 0.0 0.0 0.0 0.0 0.0 0.0 0.0 0.0 0.0 0.0 0.0 0.0 0.0 0.0 0.0 0.0 0.0 0.0 0.0 0.0 0.0 0.0 0.0 0.0 0.0 0.0 0.0 0.0 0.0 0.0 0.0 0.0 0.0 0.0 0.0 0.0 0.0 0.0 0.0 0.0 0.0 0.0 0.0 0.0 0.0 0.0 0.0 0.0 0.0 0.0 0.0 0.0 0.0 0.0 0.0 0.0 0.0 0.0 0.0 0.0 0.0 0.0 0.0 0.0 0.0 0.0 0.0 0.0 0.0 0.0 0.0 0.0 0.0 0.0 0.0 0.0 0.0 0.0 0.0 0.0 0.0 0.0 0.0 0.0 0.0 0.0 0.0 0.0 0.0 0.0 0.0 0.0 0.0 0.0 0.0 0.0 0.0 0.0 0.0 0.0 0.0 0.0 0.0 0.0 0.0 0.0 0.0 0.0 0.0 0.0 0.0 0.0 0.0 0.0 0.0 0.0 0.0 0.0 0.0 0.0 0.0 0.0 0.0 0.0 0.0 0.0 0.0 0.0 0.0 0.0 0.0 0.0 0.0 0.0 0.0 0.0 0.0 0.0 0.0 0.0 0.0 0.0 0.0 0.0 0.0 0.0 0.0 0.0 0.0 0.0 0.0 0.0 0.0 0.0 0.0 0.0 0.0 0.0 0.0 0.0 0.0 0.0 0.0 0.0 0.0 0.0 0.0 0.0 0.0 0.0 0.0 0.0 0.0 0.0 0.0 0.0 0.0 0.0 0.0 0.0 0.0 0.0 0.0 0.0 0.0 0.0 0.0 0.0 0.0 0.0 0.0 0.0 0.0 0.0 0.0 0.0 0.0 0.0 0.0 0.0 0.0 0.0 0.0 0.0 0.0 0.0 0.0 0.0 0.0 0.0 0.0 0.0 0.0 0.0 0.0 0.0 0.0 0.0 0.0 0.0 0.0 0.0 0.0 0.0 0.0 0.0 0.0 0.0 0.0 0.0 0.0 0.0 0.0 0.0 0.0 0.0 0.0 0.0 0.0 0.0 0.0 0.0 0.0 0.0 0.0 0.0 0.0 0.0 0.0 0.0 0.0 0.0 0.0 0.0 0.0 0.0 0.0 0.0 0.0 0.0 0.0 0.0 0.0 0.0 0.0 0.0 0.0 0.0 0.0 0.0 0.0 0.0 0.0 0.0 0.0 0.0 0.0 0.0 0.0 0.0 0.0 0.0 0.0 0.0 0.0 0.0 0.0 0.0 0.0 0.0 0.0 0.0 0.0 0.0 0.0 0.0 0.0 0.0 0.0 0.0 0.0 0.0 0.0 0.0 0.0 0.0 0.0 0.0 0.0 0.0 0.0 0.0 0.0 0.0 0.0 0.0 0.0 0.0 0.0 0.0 0.0 0.0 0.0 0.0 0.0 0.0 0.0 0.0 0.0 0.0 0.0 0.0 0.0 0.0 0.0 0.0 0.0 0.0 0.0 0.0 0.0 0.0 0.0 0.0 0.0 0.0 0.0 0.0 0.0 0.0 0.0 0.0 0.0 0.0 0.0 0.0 0.0 0.0 0.0 0.0 0.0 0.0 0.0 0.0 0.0 0.0 0.0 0.0 0.0 0.0 0.0 0.0 0.0 0.0 0.0 0.0 0.0 0.0 0.0 0.0 0.0 0.0 0.0 0.0 0.0 0.0 0.0 0.0 0.0 0.0 0.0 0.0 0.0 0.0 0.0 0.0 0.0 0.0 0.0 0.0 0.0 0.0 0.0 0.0 0.0 0.0 0.0 0.0 0.0 0.0 0.0 0.0 0.0 0.0 0.0 0.0 0.0 0.0 0.0 0.0 0.0 0.0 0.0 0.0 0.0 0.0 0.0 0.0 0.0 0.0 0.0 0.0 0.0 0.0 
         </DataArray>
    </CellData>
    <Polys>
        <DataArray type="Int32" Name="connectivity" format="ascii">