<?xml version="1.0"?>
<VTKFile type="PolyData" version="1.0" byte_order="LittleEndian" header_type="UInt64">
<PolyData>
<Piece NumberOfPoints="297" NumberOfVerts="0" NumberOfLines="0" NumberOfPolys="0">
    <Points>
        <DataArray type="Float32" NumberOfComponents="3" format="ascii">
        14.4950 9.1131 4.0362 14.6069 7.9297 4.4069 14.7223 10.8729 2.5475 14.4382 7.8863 4.7526 14.3489 10.6489 4.5614 14.4855 7.6521 7.1435 14.6924 4.0588 6.9178 14.9098 7.5136 4.3725 14.7943 7.8915 3.3963 7.3113 8.6817 7.1012 13.4880 5.2349 4.6292 14.8585 6.8687 4.5136 14.7880 5.7416 5.4123 12.6578 8.5953 4.9225 13.8501 11.0053 1.7706 13.4249 8.6238 3.5001 14.3345 10.7889 1.0312 13.5152 10.9012 3.5508 14.6728 4.0270 5.9147 13.3191 7.5837 3.7125 13.6283 11.7263 3.9934 13.3748 7.3106 3.8014 14.5635 11.5068 1.6579 11.5709 7.4563 6.2053 10.8798 9.0158 6.1916 11.9326 9.3409 5.8799 14.3058 9.6078 1.2589 13.0711 10.6304 4.3212 14.4369 9.0934 1.2928 14.4148 9.4219 1.1788 14.4427 7.8596 2.1010 12.8282 7.1245 4.7164 14.4936 7.7496 2.2854 12.9806 4.9297 5.7594 13.4926 4.3089 5.5367 12.0980 6.9582 5.9164 13.4171 7.8055 3.4757 13.9507 9.3230 2.0621 14.5619 9.3953 1.0953 14.0962 6.6859 3.4027 14.1074 5.8898 3.7030 14.2027 9.2372 1.6549 13.4903 4.5567 4.9450 14.1784 8.8113 2.6909 11.8996 3.0862 7.1376 13.6528 7.3485 3.6420 14.5320 9.3490 2.3293 14.0383 4.9326 3.7949 14.4829 5.7940 2.6747 14.5442 8.1773 3.1071 13.7590 5.4345 5.4070 14.5231 9.3789 2.3298 14.7814 6.7880 1.1356 14.8039 5.7814 2.5779 13.9589 7.2588 3.3051 14.6168 5.5202 3.0635 14.0990 4.8922 4.0159 14.8386 12.3325 3.4339 13.8411 6.5418 5.0386 14.8598 7.7194 2.6598 13.9383 5.6469 5.8259 14.1070 6.3869 5.0087 14.2839 5.5195 5.3151 13.7209 12.4656 8.3940 13.7796 11.7767 8.3940 14.0463 2.3984 5.6204 14.5145 8.0422 4.1449 14.5312 6.0910 4.7596 14.7763 1.9875 6.0666 14.7568 7.4549 4.3216 14.4092 7.3577 4.5829 14.7928 8.6333 3.2880 14.2613 2.9313 5.2048 14.8926 6.3220 4.4173 13.8756 11.7374 8.3940 14.6528 8.6346 3.4232 13.9221 13.1119 8.3940 13.9194 12.5176 8.3940 14.5419 9.0801 2.1176 14.3951 7.5862 4.6485 14.5232 5.1916 5.4017 13.9814 12.4797 8.3940 13.3726 1.5344 7.0692 14.4434 6.9908 4.8567 14.5890 6.6913 4.1327 14.7679 12.3742 2.1533 11.4882 8.4372 3.8580 13.9073 12.3708 8.3940 14.6940 4.4514 4.2211 13.9266 1.0997 7.1457 14.1591 12.5747 8.3940 14.7457 7.6975 1.3300 14.6634 8.2770 2.8782 14.2739 11.5311 8.3940 14.7994 8.2362 2.7751 14.1348 12.0417 8.3940 12.0496 10.2924 7.5163 14.0768 12.9739 8.3940 14.0789 12.2587 8.3940 14.8221 5.7012 2.9162 14.1554 13.2940 8.3940 14.1594 11.6884 8.3940 14.2531 11.6942 8.3940 14.2111 13.1885 8.3940 14.2552 12.7499 8.3940 14.3296 12.7591 8.3940 14.3870 12.8830 8.3940 14.3274 12.3641 8.3940 14.3921 11.0270 8.3940 14.2179 12.5341 8.3940 14.4030 11.2011 8.3940 14.3231 13.8073 8.3940 14.3010 12.6706 8.3940 14.3369 11.7669 8.3940 14.2604 12.8052 8.3940 14.3797 13.4918 8.3940 14.2648 13.4401 8.3940 14.3562 13.1996 8.3940 14.3999 11.1995 8.3940 14.3341 12.1714 8.3940 14.2216 13.2036 8.3940 14.8674 7.2255 3.4006 14.3796 12.2166 8.3940 14.3716 13.7499 8.3940 14.3944 13.5386 8.3940 14.3677 13.1406 8.3940 14.2938 12.6527 8.3940 14.9352 7.0723 5.8279 14.4136 13.1112 8.3940 14.4116 6.7937 6.2144 14.3033 13.0633 8.3940 14.3377 13.5568 8.3940 14.2080 6.8267 6.4031 14.3149 13.1999 8.3940 14.3404 11.9824 8.3940 14.3583 12.7460 8.3940 14.3684 6.0411 7.0793 14.8589 8.2577 5.2050 14.1924 8.3758 6.7035 14.3405 6.4416 7.1532 13.8456 7.6697 7.1062 14.5423 6.6962 6.6936 14.8932 6.9371 5.5198 14.5176 6.4568 6.1820 14.6851 6.5236 5.9023 14.9780 10.0408 4.9439 14.4675 12.9838 8.3940 14.5941 11.9462 8.3940 14.4237 12.0887 8.3940 14.7953 5.9980 5.6619 14.2367 7.3491 6.3724 13.3883 11.1117 7.3623 14.4750 12.9855 8.3940 14.6074 11.7519 8.3940 14.4242 12.9912 8.3940 14.2336 6.1654 6.4153 14.5711 10.4825 8.3940 14.2952 6.6198 6.2958 14.2854 7.7717 6.3179 14.5382 14.3253 8.3940 14.5606 14.5312 8.3940 14.4975 13.8945 8.3940 14.4491 11.8024 8.3940 14.4648 11.7080 8.3940 14.4310 12.3067 8.3940 14.8939 8.1500 5.3066 14.5068 13.5782 8.3940 14.4982 13.5697 8.3940 14.4817 13.3247 8.3940 14.3205 7.1597 7.0285 14.5193 5.2406 7.1951 14.4997 13.5091 8.3940 14.5665 11.1448 8.3940 14.4051 5.2355 7.1777 14.5187 7.5742 6.4842 14.3779 8.4062 6.5214 14.9077 6.9038 5.5808 14.5324 11.5434 8.3940 13.6481 7.2009 7.2815 14.8268 8.7793 5.7529 14.5214 12.0606 8.3940 14.9748 7.7097 5.2397 14.8140 6.7524 5.3621 14.5444 8.5285 6.3127 14.8234 9.7400 4.8560 14.4800 8.0245 6.3943 13.9566 6.9685 7.1821 14.8631 9.1898 5.3690 14.5230 12.8843 8.3940 14.6467 10.9738 8.3940 14.5536 13.1946 8.3940 14.5467 12.6817 8.3940 14.5790 11.6813 8.3940 14.5632 11.8113 8.3940 14.5459 12.2551 8.3940 14.6756 10.8003 8.3940 14.6729 14.1647 8.3940 13.4615 7.6244 7.2247 14.5886 13.1392 8.3940 14.7144 14.4644 8.3940 14.6897 14.1985 8.3940 14.6412 13.7386 8.3940 14.5941 12.4570 8.3940 13.7855 6.2565 7.3108 14.4780 7.3272 6.6578 13.8273 11.6819 5.7949 13.8025 5.9254 7.4183 14.6737 11.6027 5.5843 14.8094 9.4614 5.2414 14.3306 8.1093 6.6917 14.7418 6.6563 5.9893 14.6764 13.4919 8.3940 13.1682 10.6761 6.9626 14.6642 12.8221 8.3940 12.1311 6.7461 7.7643 14.6139 12.8456 8.3940 14.0843 8.9312 6.6884 14.6865 13.6401 8.3940 13.5874 5.6465 7.4484 13.7408 6.2408 7.4392 14.7448 12.8204 8.3940 14.6885 13.1999 8.3940 14.2899 8.7015 6.8599 13.3482 6.3079 7.3534 14.3454 11.6631 6.0311 14.4888 12.4250 5.6114 14.6479 12.3440 8.3940 14.3507 11.8774 5.4055 14.6863 12.0157 8.3940 14.6710 11.5197 8.3940 14.8679 9.0303 5.6538 14.6269 13.1527 8.3940 13.9779 11.1012 5.9844 14.7578 9.0747 8.3940 14.4067 6.2879 7.3849 14.7208 13.1947 8.3940 14.9244 7.7247 5.3922 14.6836 12.4244 8.3940 14.7123 11.1777 8.3940 14.7565 12.6938 8.3940 14.7167 13.4259 8.3940 14.7549 13.1782 8.3940 14.8058 13.8638 8.3940 13.7620 6.7705 7.2864 14.7582 14.3671 8.3940 14.6512 11.6988 8.3940 14.6675 13.9920 8.3940 14.7051 10.9065 8.3940 14.3370 8.2186 6.5605 14.6424 11.4876 8.3940 14.6872 11.5217 8.3940 13.7654 7.3342 7.2471 14.2497 7.6731 6.9025 14.1885 7.4958 6.9768 14.6784 12.9164 8.3940 14.6745 12.1111 8.3940 14.6762 12.5051 8.3940 14.6854 12.9171 8.3940 13.1477 5.0812 7.6137 14.7299 13.6415 8.3940 14.6258 11.7630 5.4771 13.0334 4.5148 7.7652 14.7281 11.7304 8.3940 14.7317 11.6066 5.3297 14.1798 11.9656 6.2655 14.7474 13.4196 8.3940 14.7589 11.2692 8.3940 14.7338 11.9537 8.3940 14.7528 13.6160 8.3940 14.5458 11.7227 5.6928 14.7340 13.1570 8.3940 14.7894 13.8942 8.3940 14.5718 11.2638 5.8811 14.7578 13.3568 8.3940 14.9083 11.6438 5.9885 14.7998 10.8033 8.3940 14.7477 12.1063 8.3940 14.0756 11.0064 5.9582 14.5727 11.7845 5.1528 13.2875 11.3195 6.5884 14.8168 14.0817 8.3940 13.1077 10.9830 7.0198 12.8137 11.1123 6.9978 13.6934 11.0802 6.5167 14.7815 12.8488 8.3940 14.8600 11.5240 6.4150 14.7809 11.9475 8.3940 13.9424 11.3184 6.2962 12.7758 7.0175 7.6554 14.7984 11.8500 8.3940 14.4050 8.8898 6.6946 14.5766 7.3780 7.0075 14.4769 10.7473 6.3627 14.0588 9.2336 6.3036 13.6647 8.0011 7.2686 12.6909 10.1322 7.1152 12.0722 7.0043 7.7613 
        </DataArray>
    </Points>
    <PointData>
        <DataArray type="Float32" Name="tag" format="ascii">
            29691.0000 79995.0000 87707.0000 83247.0000 84467.0000 81067.0000 81147.0000 92939.0000 86623.0000 89763.0000 92787.0000 84695.0000 136783.0000 160427.0000 160103.0000 171079.0000 167843.0000 159383.0000 147207.0000 174479.0000 158219.0000 165831.0000 159167.0000 163851.0000 151143.0000 158659.0000 155991.0000 160523.0000 153147.0000 152283.0000 151567.0000 166163.0000 154447.0000 162731.0000 154219.0000 171367.0000 171795.0000 171507.0000 165731.0000 162183.0000 160667.0000 167647.0000 170991.0000 177835.0000 176091.0000 177575.0000 174579.0000 156719.0000 156559.0000 183111.0000 184647.0000 176099.0000 155419.0000 154407.0000 176551.0000 151171.0000 157191.0000 76783.0000 227819.0000 213079.0000 208503.0000 216539.0000 208675.0000 63887.0000 58819.0000 224175.0000 224987.0000 227735.0000 221339.0000 217803.0000 234119.0000 214835.0000 221867.0000 215083.0000 73151.0000 231267.0000 76515.0000 92403.0000 228111.0000 235475.0000 223563.0000 87739.0000 213879.0000 234107.0000 222623.0000 91603.0000 143071.0000 66419.0000 265279.0000 261027.0000 96747.0000 253827.0000 286135.0000 84295.0000 276275.0000 98671.0000 87139.0000 98675.0000 92515.0000 258391.0000 100251.0000 97927.0000 94639.0000 105807.0000 109275.0000 124015.0000 130603.0000 104843.0000 94643.0000 117891.0000 98599.0000 84435.0000 123175.0000 96695.0000 98719.0000 80843.0000 109151.0000 117415.0000 95339.0000 124887.0000 96635.0000 287807.0000 130819.0000 99323.0000 102995.0000 121203.0000 98767.0000 241723.0000 124807.0000 363311.0000 112811.0000 80051.0000 359831.0000 95947.0000 121187.0000 112571.0000 369999.0000 368183.0000 397543.0000 388547.0000 394055.0000 384919.0000 353711.0000 381255.0000 381151.0000 341599.0000 138547.0000 147219.0000 136007.0000 373803.0000 372359.0000 287691.0000 109855.0000 141763.0000 103175.0000 372019.0000 65579.0000 368863.0000 349423.0000 86071.0000 59667.0000 104059.0000 125051.0000 124743.0000 140103.0000 372563.0000 95427.0000 122635.0000 130495.0000 382559.0000 387071.0000 112767.0000 73947.0000 383191.0000 385051.0000 396151.0000 365215.0000 103959.0000 390951.0000 386183.0000 143759.0000 368827.0000 372143.0000 390563.0000 392303.0000 385087.0000 393011.0000 390927.0000 119659.0000 100427.0000 111503.0000 134067.0000 139367.0000 144255.0000 118179.0000 96755.0000 104915.0000 402635.0000 112759.0000 68047.0000 86931.0000 96055.0000 129687.0000 397899.0000 388751.0000 419651.0000 401079.0000 417923.0000 396007.0000 404531.0000 383087.0000 142535.0000 443283.0000 151983.0000 464419.0000 149983.0000 459367.0000 134055.0000 406259.0000 413071.0000 155663.0000 140123.0000 456119.0000 409499.0000 432159.0000 408051.0000 148271.0000 394355.0000 151963.0000 114991.0000 401019.0000 120183.0000 436051.0000 175551.0000 418071.0000 143511.0000 383283.0000 137903.0000 93151.0000 147015.0000 116419.0000 157411.0000 109911.0000 396427.0000 90287.0000 127395.0000 90899.0000 104763.0000 397415.0000 120599.0000 136479.0000 404987.0000 396271.0000 405951.0000 133555.0000 139647.0000 140515.0000 129891.0000 409451.0000 134283.0000 399615.0000 409915.0000 149959.0000 415191.0000 418547.0000 122731.0000 118719.0000 127175.0000 124199.0000 430719.0000 140323.0000 110691.0000 416655.0000 121127.0000 428763.0000 104047.0000 140571.0000 436243.0000 436307.0000 432631.0000 86863.0000 432683.0000 434351.0000 436227.0000 158663.0000 430527.0000 147059.0000 434447.0000 461515.0000 149283.0000 456651.0000 404863.0000 428611.0000 459847.0000 458143.0000 433995.0000 462875.0000 
         </DataArray>
    </PointData>
</Piece>
</PolyData>
</VTKFile>