<?xml version="1.0"?>
<VTKFile type="RectilinearGrid" version="1.0" byte_order="LittleEndian" header_type="UInt64">
<RectilinearGrid WholeExtent="25 50 0 25 0 15">
<Piece Extent="25 50 0 25 0 15">
<Coordinates>
<DataArray type="Float64" Name="Array X-Axis" format="ascii" RangeMin="15.0" RangeMax="30.0">
15.0 15.6 16.2 16.8 17.4 18.0 18.6 19.2 19.8 20.4 21.0 21.6 22.2 22.8 23.4 24.0 24.6 25.2 25.8 26.4 27.0 27.6 28.2 28.8 29.4 30.0 
</DataArray>
<DataArray type="Float64" Name="Array Y-Axis" format="ascii" RangeMin="0.0" RangeMax="15.0">
0.0 0.6 1.2 1.8 2.4 3.0 3.6 4.2 4.8 5.4 6.0 6.6 7.2 7.8 8.4 9.0 9.6 10.2 10.8 11.4 12.0 12.6 13.2 13.8 14.4 15.0 
</DataArray>
<DataArray type="Float64" Name="Array Z-Axis" format="ascii" RangeMin="0.0" RangeMax="9.0">
0.0 0.6 1.2 1.8 2.4 3.0 3.6 4.2 4.8 5.4 6.0 6.6 7.2 7.8 8.4 9.0 
</DataArray>
</Coordinates>
<PointData>
<DataArray Name="TEMPERATURE" NumberOfComponents="1" type="Float64" format="ascii">
20.1 20.1 20.1 20.1 20.1 20.1 20.1 20.1 20.1 20.1 20.1 20.1 20.1 20.0 20.0 20.0 20.0 20.0 20.0 20.0 20.0 20.0 20.0 20.0 20.0 20.0 20.1 20.1 20.1 20.1 20.1 20.1 20.1 20.2 20.2 20.2 20.1 20.1 20.1 20.1 20.1 20.1 20.1 20.1 20.1 20.1 20.1 20.1 20.1 20.0 20.0 20.0 20.2 20.2 20.2 20.2 20.2 20.3 20.3 20.3 20.3 20.3 20.2 20.2 20.2 20.2 20.1 20.1 20.1 20.1 20.1 20.1 20.1 20.1 20.1 20.1 20.0 20.0 20.2 20.3 20.3 20.3 20.3 20.4 20.4 20.4 20.4 20.4 20.3 20.3 20.3 20.2 20.2 20.2 20.2 20.2 20.2 20.2 20.2 20.2 20.1 20.1 20.1 20.0 20.3 20.4 20.4 20.5 20.5 20.5 20.5 20.5 20.5 20.5 20.4 20.4 20.4 20.3 20.3 20.3 20.3 20.3 20.3 20.3 20.2 20.2 20.2 20.1 20.1 20.0 20.4 20.4 20.5 20.6 20.6 20.6 20.6 20.6 20.6 20.6 20.5 20.5 20.5 20.5 20.4 20.4 20.4 20.4 20.4 20.3 20.3 20.2 20.2 20.1 20.1 20.0 20.5 20.5 20.6 20.7 20.7 20.8 20.8 20.8 20.8 20.7 20.7 20.6 20.6 20.6 20.6 20.5 20.5 20.5 20.5 20.4 20.3 20.3 20.2 20.1 20.1 20.0 20.6 20.6 20.7 20.8 20.9 20.9 20.9 20.9 20.9 20.9 20.8 20.7 20.7 20.7 20.7 20.6 20.6 20.6 20.6 20.5 20.4 20.3 20.2 20.1 20.1 20.0 20.7 20.8 20.8 20.9 21.1 21.1 21.1 21.1 21.1 21.0 20.9 20.9 20.9 20.8 20.8 20.8 20.7 20.7 20.6 20.5 20.4 20.3 20.2 20.2 20.1 20.0 20.9 20.9 21.0 21.1 21.3 21.4 21.4 21.4 21.3 21.2 21.1 21.1 21.0 21.0 20.9 20.9 20.9 20.8 20.6 20.5 20.4 20.4 20.3 20.2 20.1 20.0 21.0 21.1 21.2 21.3 21.5 21.6 21.7 21.7 21.6 21.5 21.3 21.2 21.2 21.2 21.1 21.1 21.0 20.8 20.7 20.6 20.5 20.4 20.3 20.2 20.1 20.1 21.2 21.3 21.4 21.5 21.6 21.8 22.0 22.0 21.9 21.8 21.6 21.5 21.4 21.4 21.3 21.2 21.0 20.9 20.7 20.6 20.5 20.4 20.3 20.2 20.1 20.1 21.4 21.5 21.6 21.8 21.9 22.1 22.3 22.3 22.2 22.1 22.0 21.8 21.7 21.6 21.5 21.3 21.1 20.9 20.8 20.7 20.6 20.5 20.4 20.2 20.1 20.1 21.6 21.7 21.9 22.0 22.2 22.4 22.6 22.7 22.6 22.5 22.3 22.1 22.0 21.8 21.6 21.4 21.2 21.0 20.9 20.8 20.6 20.5 20.4 20.3 20.1 20.1 21.8 22.0 22.2 22.4 22.7 22.9 23.0 23.0 23.0 22.9 22.6 22.4 22.3 22.0 21.7 21.5 21.3 21.1 21.0 20.9 20.7 20.6 20.4 20.3 20.1 20.1 22.1 22.3 22.6 22.9 23.3 23.6 23.7 23.7 23.6 23.4 23.0 22.8 22.5 22.2 21.9 21.6 21.4 21.3 21.1 20.9 20.8 20.6 20.4 20.3 20.1 20.1 22.5 22.7 23.1 23.5 23.9 24.5 24.7 24.5 24.3 24.0 23.6 23.1 22.7 22.4 22.1 21.9 21.7 21.4 21.2 21.0 20.8 20.6 20.4 20.3 20.1 20.1 22.8 23.1 23.6 24.2 24.8 25.4 25.8 25.6 25.1 24.7 24.2 23.5 23.1 22.8 22.5 22.2 21.9 21.5 21.2 20.9 20.8 20.6 20.5 20.3 20.2 20.1 23.2 23.7 24.2 24.9 26.0 27.0 27.3 26.9 26.1 25.6 24.9 24.1 23.6 23.3 22.8 22.4 21.9 21.6 21.4 21.1 20.9 20.7 20.5 20.4 20.2 20.2 23.9 24.4 25.3 26.7 28.8 32.1 33.8 31.3 28.1 26.9 26.2 25.2 24.1 23.5 23.0 22.5 22.1 21.8 21.6 21.4 21.1 20.9 20.6 20.5 20.3 20.2 24.7 25.7 27.2 29.7 31.9 36.1 39.2 34.1 30.6 28.7 27.3 25.8 24.5 23.8 23.2 22.6 22.2 21.9 21.7 21.4 21.1 20.9 20.7 20.5 20.2 20.1 25.4 26.6 28.4 32.5 35.7 20.0 20.0 34.9 33.2 29.9 27.4 25.7 24.6 23.8 23.2 22.6 22.2 21.9 21.6 21.3 21.0 20.8 20.6 20.4 20.2 20.1 25.8 26.9 28.6 33.2 36.8 20.0 20.0 35.9 33.3 29.2 26.7 25.4 24.4 23.6 23.0 22.6 22.2 21.8 21.5 21.2 21.0 20.7 20.5 20.4 20.2 20.1 25.5 26.7 28.6 32.2 34.2 34.0 32.8 31.8 29.9 27.0 25.6 24.6 23.8 23.1 22.7 22.3 22.0 21.7 21.4 21.2 21.0 20.8 20.6 20.4 20.2 20.1 24.7 25.6 27.3 29.7 30.9 31.2 30.7 29.4 27.4 25.6 24.6 23.9 23.3 22.8 22.4 22.0 21.7 21.5 21.2 21.0 20.9 20.7 20.6 20.4 20.2 20.1 23.1 24.6 25.5 26.6 27.2 27.6 27.8 27.3 26.0 24.8 24.1 23.4 23.0 22.5 22.2 21.9 21.6 21.3 21.1 20.9 20.8 20.6 20.5 20.3 20.2 20.1 20.0 20.0 20.0 20.0 20.1 20.1 20.1 20.1 20.1 20.1 20.1 20.0 20.0 20.0 20.0 20.0 20.0 20.0 20.0 20.0 20.0 20.0 20.0 20.0 20.0 20.0 20.1 20.1 20.1 20.1 20.1 20.1 20.1 20.1 20.1 20.1 20.1 20.1 20.1 20.1 20.1 20.1 20.1 20.1 20.1 20.1 20.1 20.1 20.0 20.0 20.0 20.0 20.2 20.2 20.2 20.2 20.2 20.2 20.2 20.2 20.2 20.2 20.2 20.2 20.2 20.2 20.1 20.1 20.1 20.1 20.1 20.1 20.1 20.1 20.1 20.1 20.0 20.0 20.2 20.3 20.3 20.3 20.3 20.4 20.4 20.4 20.3 20.3 20.3 20.3 20.3 20.2 20.2 20.2 20.2 20.2 20.2 20.2 20.2 20.1 20.1 20.1 20.0 20.0 20.3 20.3 20.4 20.4 20.4 20.5 20.5 20.5 20.5 20.5 20.4 20.4 20.3 20.3 20.3 20.3 20.3 20.3 20.3 20.2 20.2 20.2 20.1 20.1 20.1 20.0 20.4 20.4 20.5 20.6 20.6 20.6 20.6 20.6 20.6 20.6 20.5 20.5 20.4 20.4 20.4 20.4 20.4 20.4 20.3 20.3 20.3 20.2 20.2 20.1 20.1 20.0 20.5 20.5 20.6 20.7 20.8 20.8 20.8 20.8 20.8 20.7 20.6 20.6 20.6 20.5 20.5 20.5 20.5 20.5 20.4 20.4 20.3 20.2 20.2 20.1 20.1 20.0 20.6 20.6 20.7 20.8 20.9 21.0 20.9 20.9 20.9 20.9 20.8 20.7 20.7 20.7 20.6 20.6 20.6 20.6 20.5 20.4 20.3 20.3 20.2 20.1 20.1 20.0 20.7 20.8 20.8 21.0 21.1 21.2 21.1 21.1 21.1 21.0 20.9 20.9 20.8 20.8 20.8 20.7 20.7 20.7 20.6 20.5 20.4 20.3 20.2 20.2 20.1 20.0 20.9 20.9 21.0 21.1 21.3 21.4 21.4 21.4 21.3 21.2 21.1 21.0 21.0 21.0 20.9 20.9 20.8 20.7 20.6 20.5 20.4 20.3 20.3 20.2 20.1 20.0 21.0 21.1 21.2 21.3 21.5 21.6 21.7 21.7 21.6 21.5 21.3 21.2 21.2 21.1 21.1 21.1 20.9 20.8 20.6 20.5 20.5 20.4 20.3 20.2 20.1 20.1 21.2 21.3 21.4 21.5 21.7 21.8 22.0 22.0 21.9 21.8 21.6 21.5 21.4 21.4 21.3 21.2 21.0 20.8 20.7 20.6 20.5 20.4 20.3 20.2 20.1 20.1 21.4 21.5 21.6 21.8 21.9 22.1 22.3 22.4 22.2 22.1 21.9 21.8 21.7 21.6 21.5 21.3 21.1 20.9 20.8 20.7 20.6 20.4 20.3 20.2 20.1 20.1 21.6 21.7 21.9 22.1 22.3 22.5 22.7 22.8 22.7 22.5 22.3 22.1 22.0 21.8 21.6 21.4 21.2 21.0 20.9 20.7 20.6 20.5 20.3 20.2 20.1 20.1 21.9 22.0 22.2 22.5 22.8 23.1 23.3 23.3 23.1 22.9 22.6 22.5 22.3 22.0 21.7 21.5 21.3 21.1 21.0 20.8 20.7 20.5 20.4 20.2 20.1 20.1 22.2 22.4 22.7 23.0 23.4 23.8 24.0 23.9 23.7 23.4 23.1 22.8 22.5 22.2 21.9 21.6 21.4 21.2 21.1 20.9 20.7 20.6 20.4 20.2 20.1 20.1 22.5 22.8 23.2 23.6 24.0 24.6 25.0 24.9 24.4 24.1 23.7 23.2 22.8 22.4 22.1 21.9 21.6 21.4 21.2 21.0 20.8 20.6 20.4 20.3 20.1 20.1 22.9 23.2 23.7 24.3 25.0 25.8 26.3 26.0 25.3 24.8 24.3 23.6 23.1 22.8 22.5 22.2 21.8 21.5 21.2 20.9 20.7 20.6 20.4 20.3 20.2 20.1 23.4 23.9 24.5 25.5 26.9 28.4 29.8 28.8 26.5 25.7 25.0 24.2 23.6 23.3 22.9 22.4 21.9 21.6 21.3 21.1 20.9 20.7 20.5 20.4 20.2 20.1 24.1 24.7 25.9 28.8 34.5 45.1 60.1 49.5 29.2 27.0 26.3 25.3 24.2 23.6 23.1 22.6 22.1 21.8 21.5 21.3 21.1 20.8 20.6 20.4 20.2 20.1 24.9 26.0 29.2 36.7 81.7 179.8 194.2 92.3 34.4 29.0 27.5 26.0 24.7 24.0 23.3 22.7 22.2 21.9 21.6 21.4 21.1 20.9 20.6 20.4 20.2 20.1 25.6 26.9 30.7 44.4 135.3 389.1 374.4 118.1 38.2 30.5 27.8 26.1 24.8 24.1 23.4 22.7 22.3 21.9 21.6 21.3 21.0 20.8 20.5 20.3 20.2 20.1 26.4 27.6 30.1 44.2 105.0 253.9 252.3 94.1 36.7 29.8 27.1 25.6 24.6 23.7 23.2 22.6 22.2 21.9 21.5 21.2 21.0 20.7 20.5 20.3 20.2 20.1 26.2 27.3 30.0 38.6 54.2 75.4 80.0 53.7 32.9 27.7 25.9 24.8 24.0 23.3 22.8 22.4 22.0 21.7 21.4 21.2 20.9 20.7 20.5 20.4 20.2 20.1 24.9 25.8 27.9 31.9 34.0 34.1 34.2 33.6 30.0 26.1 24.9 24.1 23.4 22.9 22.5 22.1 21.8 21.5 21.3 21.0 20.9 20.7 20.5 20.4 20.2 20.1 23.2 24.8 25.8 27.1 27.9 28.4 28.6 28.6 27.1 25.1 24.3 23.6 23.1 22.6 22.2 21.9 21.6 21.3 21.1 20.9 20.8 20.6 20.5 20.3 20.2 20.1 20.0 20.0 20.0 20.0 20.0 20.0 20.1 20.1 20.0 20.1 20.1 20.0 20.0 20.0 20.0 20.0 20.0 20.0 20.0 20.0 20.0 20.0 20.0 20.0 20.0 20.0 20.1 20.1 20.1 20.1 20.1 20.1 20.1 20.1 20.1 20.1 20.1 20.1 20.1 20.1 20.1 20.1 20.1 20.1 20.1 20.0 20.0 20.0 20.0 20.0 20.0 20.0 20.1 20.1 20.2 20.2 20.2 20.2 20.2 20.2 20.2 20.2 20.2 20.2 20.2 20.1 20.1 20.1 20.1 20.1 20.1 20.1 20.1 20.1 20.1 20.1 20.0 20.0 20.2 20.2 20.3 20.3 20.3 20.3 20.3 20.3 20.3 20.3 20.3 20.3 20.2 20.2 20.2 20.2 20.2 20.2 20.2 20.1 20.1 20.1 20.1 20.1 20.0 20.0 20.3 20.3 20.4 20.4 20.4 20.4 20.5 20.4 20.4 20.4 20.4 20.3 20.3 20.3 20.3 20.3 20.3 20.2 20.2 20.2 20.2 20.2 20.1 20.1 20.0 20.0 20.4 20.4 20.5 20.5 20.6 20.6 20.6 20.6 20.6 20.6 20.5 20.4 20.4 20.4 20.4 20.4 20.3 20.3 20.3 20.3 20.3 20.2 20.1 20.1 20.0 20.0 20.5 20.5 20.6 20.7 20.8 20.8 20.8 20.8 20.8 20.7 20.6 20.6 20.5 20.5 20.5 20.4 20.4 20.4 20.4 20.4 20.3 20.2 20.2 20.1 20.0 20.0 20.6 20.6 20.7 20.8 21.0 21.0 21.0 21.0 20.9 20.9 20.8 20.7 20.6 20.6 20.6 20.5 20.5 20.5 20.5 20.4 20.3 20.2 20.2 20.1 20.1 20.0 20.7 20.8 20.8 21.0 21.1 21.2 21.2 21.2 21.1 21.0 20.9 20.8 20.8 20.7 20.7 20.7 20.6 20.6 20.5 20.4 20.3 20.2 20.2 20.1 20.1 20.0 20.8 20.9 21.0 21.1 21.3 21.4 21.5 21.5 21.3 21.2 21.1 21.0 20.9 20.9 20.8 20.8 20.8 20.7 20.6 20.4 20.4 20.3 20.2 20.1 20.1 20.0 21.0 21.1 21.2 21.3 21.5 21.6 21.8 21.8 21.6 21.5 21.3 21.2 21.1 21.1 21.1 21.0 20.9 20.7 20.6 20.5 20.4 20.3 20.2 20.2 20.1 20.0 21.2 21.3 21.4 21.5 21.7 21.9 22.1 22.1 21.9 21.7 21.6 21.5 21.4 21.3 21.3 21.2 21.0 20.8 20.6 20.5 20.5 20.4 20.3 20.2 20.1 20.0 21.4 21.5 21.6 21.8 22.0 22.2 22.4 22.5 22.3 22.1 21.9 21.7 21.7 21.6 21.5 21.3 21.0 20.9 20.7 20.6 20.5 20.4 20.3 20.2 20.1 20.0 21.6 21.8 21.9 22.2 22.5 22.7 23.0 23.1 22.8 22.4 22.2 22.1 22.0 21.8 21.6 21.3 21.1 21.0 20.8 20.7 20.5 20.4 20.3 20.2 20.1 20.0 21.9 22.1 22.3 22.6 23.0 23.4 23.7 23.7 23.3 22.9 22.7 22.5 22.3 22.0 21.7 21.4 21.2 21.1 20.9 20.7 20.6 20.4 20.3 20.2 20.1 20.0 22.3 22.5 22.8 23.2 23.6 24.1 24.5 24.4 23.9 23.5 23.3 23.0 22.6 22.2 21.9 21.6 21.4 21.2 21.0 20.8 20.7 20.5 20.3 20.2 20.1 20.1 22.6 23.0 23.4 24.0 24.6 25.2 25.8 25.5 24.7 24.3 23.9 23.4 22.9 22.5 22.1 21.8 21.5 21.3 21.1 20.9 20.7 20.5 20.4 20.2 20.1 20.1 23.1 23.6 24.2 26.5 27.6 27.9 29.4 28.3 26.2 25.1 24.5 23.8 23.2 22.8 22.5 22.1 21.7 21.4 21.2 20.9 20.7 20.6 20.4 20.3 20.2 20.1 23.7 24.5 25.9 30.6 32.6 33.0 36.4 33.4 28.0 26.0 25.2 24.4 23.7 23.3 22.8 22.4 21.9 21.5 21.3 21.0 20.8 20.7 20.5 20.4 20.2 20.1 24.5 25.9 28.4 35.8 46.3 61.1 80.9 63.0 31.7 27.6 26.8 25.6 24.5 23.8 23.2 22.6 22.1 21.7 21.4 21.2 21.0 20.8 20.6 20.4 20.2 20.1 25.5 27.5 38.1 61.0 137.1 250.4 266.7 140.3 39.7 30.0 28.5 26.8 25.4 24.4 23.6 22.9 22.3 21.8 21.5 21.3 21.1 20.9 20.6 20.3 20.1 20.1 26.2 28.3 40.9 83.3 225.8 405.1 398.8 200.2 55.3 32.2 29.0 27.0 25.6 24.6 23.8 23.1 22.4 21.9 21.6 21.3 21.1 20.8 20.5 20.3 20.1 20.1 27.1 28.8 35.7 76.9 192.1 306.2 300.7 174.1 61.3 32.3 28.1 26.4 25.2 24.3 23.5 22.9 22.4 22.0 21.6 21.3 21.0 20.7 20.5 20.3 20.2 20.1 26.7 28.3 33.6 55.9 100.7 136.5 140.1 101.4 50.7 30.3 26.9 25.5 24.6 23.8 23.2 22.7 22.3 21.9 21.5 21.2 20.9 20.7 20.5 20.3 20.2 20.1 25.2 26.5 29.0 35.4 41.8 44.6 48.4 48.3 37.3 27.6 25.8 24.8 23.9 23.3 22.7 22.3 22.0 21.6 21.3 21.0 20.8 20.6 20.5 20.3 20.1 20.1 23.4 25.3 26.4 27.7 29.3 30.9 31.3 30.3 28.1 25.8 24.8 24.1 23.4 22.8 22.4 22.0 21.7 21.4 21.1 20.9 20.7 20.6 20.4 20.3 20.1 20.1 20.0 20.0 20.0 20.0 20.0 20.0 20.0 20.0 20.1 20.1 20.0 20.0 20.0 20.0 20.0 20.0 20.0 20.0 20.0 20.0 20.0 20.0 20.0 20.0 20.0 20.0 20.1 20.1 20.1 20.1 20.1 20.1 20.1 20.1 20.1 20.1 20.1 20.1 20.1 20.1 20.1 20.1 20.1 20.1 20.0 20.0 20.0 20.0 20.0 20.0 20.0 20.0 20.1 20.1 20.2 20.2 20.2 20.2 20.2 20.2 20.2 20.2 20.2 20.2 20.1 20.1 20.1 20.1 20.1 20.1 20.1 20.1 20.1 20.1 20.1 20.0 20.0 20.0 20.2 20.2 20.3 20.3 20.3 20.3 20.3 20.3 20.3 20.3 20.3 20.2 20.2 20.2 20.2 20.2 20.2 20.2 20.1 20.1 20.1 20.1 20.1 20.1 20.0 20.0 20.3 20.3 20.3 20.4 20.4 20.4 20.4 20.4 20.4 20.4 20.4 20.3 20.3 20.3 20.3 20.3 20.2 20.2 20.2 20.2 20.2 20.1 20.1 20.1 20.0 20.0 20.4 20.4 20.5 20.5 20.6 20.6 20.6 20.6 20.6 20.5 20.5 20.4 20.4 20.4 20.4 20.3 20.3 20.3 20.3 20.3 20.2 20.2 20.1 20.1 20.0 20.0 20.5 20.6 20.6 20.7 20.8 20.8 20.7 20.7 20.8 20.7 20.6 20.6 20.5 20.5 20.5 20.4 20.4 20.4 20.4 20.3 20.3 20.2 20.1 20.1 20.0 20.0 20.6 20.7 20.7 20.8 21.0 21.0 21.0 21.0 21.0 20.9 20.8 20.7 20.7 20.6 20.6 20.5 20.5 20.5 20.4 20.4 20.3 20.2 20.2 20.1 20.1 20.0 20.8 20.9 20.9 21.0 21.1 21.2 21.2 21.3 21.2 21.0 20.9 20.8 20.8 20.7 20.7 20.6 20.6 20.6 20.5 20.4 20.3 20.2 20.2 20.1 20.1 20.0 20.9 21.0 21.1 21.2 21.3 21.4 21.5 21.5 21.4 21.2 21.1 21.0 20.9 20.9 20.8 20.8 20.8 20.7 20.5 20.4 20.3 20.3 20.2 20.1 20.1 20.0 21.0 21.2 21.3 21.4 21.5 21.6 21.7 21.8 21.7 21.5 21.3 21.2 21.1 21.1 21.0 21.0 20.9 20.7 20.6 20.5 20.4 20.3 20.2 20.1 20.1 20.0 21.2 21.3 21.5 21.7 21.8 21.9 22.1 22.2 22.0 21.7 21.6 21.5 21.4 21.3 21.3 21.1 20.9 20.8 20.6 20.5 20.4 20.3 20.2 20.2 20.1 20.0 21.4 21.6 21.8 22.0 22.1 22.3 22.5 22.7 22.4 22.1 21.9 21.8 21.7 21.6 21.4 21.2 21.0 20.8 20.7 20.6 20.5 20.4 20.3 20.2 20.1 20.0 21.7 21.9 22.1 22.3 22.6 22.8 23.1 23.2 22.8 22.5 22.3 22.2 22.0 21.8 21.6 21.3 21.1 20.9 20.8 20.7 20.5 20.4 20.3 20.2 20.1 20.0 22.0 22.3 22.5 22.8 23.1 23.4 23.8 23.8 23.4 23.0 22.8 22.6 22.4 22.0 21.7 21.4 21.2 21.1 20.9 20.7 20.6 20.4 20.3 20.2 20.1 20.0 22.4 22.8 23.2 23.5 23.9 24.3 24.7 24.7 24.2 23.7 23.4 23.0 22.6 22.3 21.9 21.6 21.4 21.2 21.0 20.8 20.6 20.5 20.3 20.2 20.1 20.0 22.8 23.3 24.8 25.6 25.7 26.9 27.2 26.1 25.1 24.6 24.1 23.5 22.9 22.5 22.1 21.8 21.5 21.3 21.1 20.9 20.7 20.5 20.4 20.2 20.1 20.1 23.4 24.2 27.8 30.8 29.7 31.1 33.1 30.3 26.8 25.5 24.8 24.0 23.3 22.8 22.4 22.0 21.7 21.4 21.2 20.9 20.7 20.5 20.4 20.3 20.2 20.1 24.9 27.8 32.9 37.5 35.8 36.2 40.1 35.4 28.6 26.5 25.6 24.6 23.8 23.2 22.8 22.3 21.9 21.5 21.2 21.0 20.8 20.6 20.5 20.3 20.2 20.1 26.4 32.2 40.2 46.5 52.5 61.2 67.9 54.3 34.0 28.3 27.2 25.9 24.7 23.8 23.1 22.6 22.1 21.7 21.4 21.2 20.9 20.7 20.5 20.3 20.2 20.1 27.2 33.5 58.3 96.6 164.1 229.9 235.0 142.9 48.6 33.1 30.0 27.6 25.9 24.6 23.7 23.0 22.3 21.9 21.5 21.3 21.0 20.8 20.6 20.3 20.1 20.1 28.1 32.4 63.0 145.8 290.1 399.1 399.3 254.1 90.1 43.3 32.5 28.4 26.6 25.1 24.1 23.3 22.6 22.0 21.7 21.4 21.1 20.8 20.5 20.3 20.1 20.1 28.4 31.2 54.8 139.8 272.8 360.0 365.1 268.5 129.6 56.9 33.9 27.7 26.2 24.9 23.9 23.2 22.6 22.1 21.7 21.4 21.0 20.7 20.5 20.3 20.2 20.1 27.3 29.5 44.7 86.6 142.7 188.3 206.8 169.2 98.0 50.0 31.2 26.4 25.3 24.4 23.5 22.9 22.4 22.0 21.6 21.3 21.0 20.7 20.5 20.3 20.2 20.1 25.5 27.0 30.3 36.9 45.0 57.4 71.3 64.5 44.3 31.9 26.8 25.4 24.4 23.7 23.0 22.5 22.1 21.7 21.4 21.1 20.8 20.6 20.4 20.3 20.1 20.1 23.5 25.6 26.7 28.0 30.1 33.5 34.5 31.4 28.6 26.8 25.4 24.5 23.7 23.1 22.6 22.2 21.8 21.5 21.2 21.0 20.8 20.6 20.4 20.3 20.1 20.1 20.0 20.0 20.0 20.0 20.0 20.0 20.0 20.0 20.1 20.1 20.0 20.0 20.0 20.0 20.0 20.0 20.0 20.0 20.0 20.0 20.0 20.0 20.0 20.0 20.0 20.0 20.1 20.1 20.1 20.1 20.1 20.1 20.1 20.1 20.1 20.1 20.1 20.1 20.1 20.1 20.1 20.1 20.1 20.1 20.0 20.0 20.0 20.0 20.0 20.0 20.0 20.0 20.1 20.2 20.2 20.2 20.2 20.2 20.2 20.2 20.2 20.2 20.2 20.2 20.1 20.1 20.1 20.1 20.1 20.1 20.1 20.1 20.1 20.1 20.1 20.0 20.0 20.0 20.2 20.3 20.3 20.4 20.3 20.3 20.3 20.3 20.3 20.3 20.3 20.3 20.2 20.2 20.2 20.2 20.2 20.2 20.2 20.2 20.1 20.1 20.1 20.1 20.0 20.0 20.4 20.4 20.4 20.5 20.5 20.5 20.5 20.5 20.5 20.4 20.4 20.4 20.3 20.3 20.3 20.3 20.3 20.2 20.2 20.2 20.2 20.2 20.1 20.1 20.0 20.0 20.5 20.5 20.6 20.7 20.7 20.6 20.6 20.6 20.6 20.6 20.5 20.5 20.4 20.4 20.4 20.4 20.3 20.3 20.3 20.3 20.2 20.2 20.1 20.1 20.0 20.0 20.6 20.7 20.7 20.8 20.8 20.8 20.7 20.8 20.8 20.8 20.6 20.6 20.6 20.5 20.5 20.5 20.4 20.4 20.4 20.3 20.3 20.2 20.2 20.1 20.1 20.0 20.8 20.9 20.9 20.9 21.0 21.0 21.0 21.0 21.0 20.9 20.8 20.8 20.7 20.7 20.6 20.6 20.6 20.5 20.5 20.4 20.3 20.2 20.2 20.1 20.1 20.0 20.9 21.0 21.1 21.1 21.2 21.2 21.2 21.3 21.3 21.1 21.0 20.9 20.9 20.8 20.8 20.7 20.7 20.6 20.5 20.4 20.3 20.3 20.2 20.1 20.1 20.0 21.0 21.2 21.3 21.3 21.4 21.4 21.5 21.6 21.5 21.3 21.2 21.1 21.0 21.0 20.9 20.9 20.8 20.7 20.6 20.5 20.4 20.3 20.2 20.1 20.1 20.0 21.1 21.3 21.5 21.6 21.7 21.7 21.8 21.9 21.8 21.6 21.4 21.3 21.2 21.2 21.1 21.0 20.9 20.8 20.6 20.5 20.4 20.3 20.2 20.1 20.1 20.0 21.3 21.5 21.7 21.9 22.0 22.0 22.2 22.3 22.1 21.8 21.6 21.5 21.5 21.4 21.3 21.1 21.0 20.8 20.7 20.6 20.5 20.4 20.3 20.2 20.1 20.0 21.5 21.7 21.9 22.2 22.3 22.4 22.6 22.8 22.5 22.1 22.0 21.9 21.8 21.7 21.5 21.3 21.1 20.9 20.8 20.6 20.5 20.4 20.3 20.2 20.1 20.0 21.8 22.0 22.3 22.5 22.7 22.9 23.1 23.2 22.9 22.6 22.4 22.3 22.1 21.9 21.6 21.4 21.2 21.0 20.8 20.7 20.6 20.4 20.3 20.2 20.1 20.0 22.1 22.4 22.7 23.0 23.2 23.5 23.8 23.8 23.4 23.1 22.9 22.7 22.4 22.1 21.8 21.5 21.3 21.1 20.9 20.8 20.6 20.5 20.3 20.2 20.1 20.0 22.5 23.2 23.8 23.9 24.0 24.4 24.8 24.7 24.2 23.8 23.5 23.1 22.6 22.3 22.0 21.7 21.5 21.2 21.0 20.8 20.7 20.5 20.4 20.2 20.1 20.1 23.2 25.2 27.3 26.7 26.5 27.8 27.7 26.2 25.2 24.6 24.2 23.6 23.0 22.5 22.2 21.9 21.6 21.3 21.1 20.9 20.7 20.5 20.4 20.2 20.1 20.1 24.2 29.2 34.5 32.3 28.3 30.6 33.3 29.7 26.4 25.6 24.9 24.2 23.5 22.9 22.5 22.1 21.7 21.5 21.2 21.0 20.8 20.6 20.4 20.3 20.2 20.1 26.4 37.6 46.3 40.7 31.0 32.3 38.3 33.7 28.3 26.9 25.7 24.7 23.9 23.3 22.8 22.3 21.9 21.6 21.3 21.1 20.9 20.7 20.5 20.4 20.2 20.1 30.4 48.5 63.8 57.5 43.5 45.9 53.8 46.4 35.3 29.6 27.0 25.8 24.7 23.8 23.1 22.6 22.2 21.8 21.5 21.2 21.0 20.8 20.6 20.4 20.2 20.1 32.4 56.1 97.8 126.7 124.7 132.0 147.4 108.8 57.0 38.2 30.6 27.7 25.9 24.5 23.7 23.0 22.4 22.0 21.7 21.4 21.1 20.9 20.6 20.4 20.2 20.1 32.2 52.5 112.7 201.9 224.2 249.7 300.0 231.0 127.2 68.1 37.2 29.2 26.9 25.2 24.1 23.3 22.7 22.2 21.8 21.4 21.1 20.9 20.6 20.4 20.2 20.1 31.8 49.2 107.9 204.8 220.0 262.0 342.8 293.0 196.2 101.4 41.7 28.8 26.9 25.4 24.2 23.4 22.8 22.3 21.9 21.5 21.1 20.8 20.6 20.4 20.2 20.1 28.9 41.7 79.9 122.6 120.9 155.1 209.0 185.5 136.8 78.3 35.3 27.1 26.0 24.9 23.8 23.1 22.5 22.1 21.8 21.4 21.0 20.8 20.6 20.4 20.2 20.1 25.8 29.0 38.6 43.3 43.7 58.7 72.7 61.4 46.8 36.8 27.4 25.7 24.8 24.1 23.3 22.7 22.2 21.9 21.5 21.2 20.9 20.7 20.5 20.3 20.1 20.1 23.6 25.8 27.9 29.6 31.1 34.2 35.8 32.5 29.0 27.3 25.7 24.8 24.0 23.4 22.9 22.4 22.0 21.6 21.4 21.1 20.9 20.7 20.5 20.3 20.1 20.1 20.0 20.0 20.1 20.0 20.0 20.0 20.0 20.0 20.0 20.0 20.0 20.0 20.0 20.0 20.0 20.0 20.0 20.0 20.0 20.0 20.0 20.0 20.0 20.0 20.0 20.0 20.1 20.1 20.1 20.1 20.1 20.1 20.1 20.1 20.1 20.1 20.1 20.1 20.1 20.1 20.1 20.1 20.1 20.1 20.1 20.1 20.1 20.1 20.0 20.0 20.0 20.0 20.2 20.2 20.3 20.2 20.2 20.2 20.2 20.2 20.2 20.2 20.2 20.2 20.2 20.2 20.2 20.2 20.1 20.1 20.1 20.1 20.1 20.1 20.1 20.1 20.0 20.0 20.3 20.3 20.4 20.4 20.4 20.3 20.3 20.3 20.3 20.3 20.3 20.3 20.3 20.3 20.3 20.2 20.2 20.2 20.2 20.2 20.2 20.2 20.1 20.1 20.0 20.0 20.4 20.4 20.5 20.6 20.6 20.5 20.5 20.5 20.5 20.5 20.4 20.4 20.4 20.4 20.3 20.3 20.3 20.3 20.3 20.3 20.2 20.2 20.2 20.1 20.1 20.0 20.5 20.6 20.7 20.7 20.7 20.6 20.6 20.6 20.7 20.6 20.6 20.5 20.5 20.5 20.5 20.4 20.4 20.4 20.4 20.3 20.3 20.2 20.2 20.1 20.1 20.0 20.6 20.7 20.8 20.9 20.9 20.8 20.8 20.8 20.8 20.8 20.7 20.7 20.6 20.6 20.6 20.6 20.5 20.5 20.4 20.4 20.3 20.2 20.2 20.1 20.1 20.0 20.8 20.9 20.9 21.0 21.0 21.0 21.0 21.0 21.1 21.0 20.9 20.8 20.8 20.8 20.7 20.7 20.7 20.6 20.5 20.4 20.4 20.3 20.2 20.1 20.1 20.0 20.9 21.1 21.1 21.2 21.2 21.2 21.2 21.3 21.3 21.2 21.1 21.0 21.0 20.9 20.9 20.9 20.8 20.7 20.6 20.5 20.4 20.3 20.2 20.2 20.1 20.0 21.0 21.2 21.3 21.4 21.5 21.5 21.5 21.6 21.6 21.4 21.3 21.2 21.1 21.1 21.0 21.0 20.9 20.8 20.7 20.6 20.4 20.3 20.2 20.2 20.1 20.0 21.2 21.4 21.5 21.7 21.7 21.8 21.8 21.9 21.9 21.7 21.5 21.4 21.3 21.3 21.2 21.1 21.0 20.9 20.7 20.6 20.5 20.4 20.3 20.2 20.1 20.0 21.4 21.6 21.8 21.9 22.0 22.1 22.2 22.4 22.2 21.9 21.8 21.6 21.6 21.5 21.4 21.2 21.1 20.9 20.8 20.6 20.5 20.4 20.3 20.2 20.1 20.0 21.6 21.8 22.0 22.2 22.4 22.5 22.7 22.8 22.6 22.3 22.1 22.0 21.9 21.7 21.5 21.4 21.2 21.0 20.9 20.7 20.6 20.4 20.3 20.2 20.1 20.0 21.9 22.1 22.4 22.6 22.8 23.0 23.1 23.2 22.9 22.6 22.5 22.4 22.2 21.9 21.7 21.5 21.3 21.1 20.9 20.8 20.6 20.5 20.3 20.2 20.1 20.1 22.2 22.5 22.8 23.1 23.3 23.6 23.8 23.8 23.4 23.1 23.0 22.7 22.4 22.1 21.9 21.6 21.4 21.2 21.0 20.8 20.7 20.5 20.4 20.2 20.1 20.1 22.7 23.5 24.0 23.8 24.1 24.5 24.7 24.6 24.1 23.8 23.5 23.1 22.7 22.4 22.1 21.8 21.6 21.3 21.1 20.9 20.7 20.5 20.4 20.3 20.1 20.1 24.8 26.8 27.8 26.0 26.1 26.9 26.7 25.8 25.1 24.5 24.1 23.6 23.1 22.6 22.3 22.0 21.7 21.4 21.2 20.9 20.7 20.6 20.4 20.3 20.1 20.1 29.1 37.9 39.2 29.7 26.8 29.2 30.4 28.2 26.3 25.5 24.8 24.2 23.6 23.0 22.6 22.2 21.8 21.5 21.2 21.0 20.8 20.6 20.5 20.3 20.2 20.1 37.1 59.9 60.7 37.5 27.7 31.9 35.5 32.3 28.9 27.0 25.6 24.8 24.0 23.4 22.9 22.4 22.0 21.6 21.4 21.1 20.9 20.7 20.6 20.4 20.2 20.1 50.0 84.5 89.1 55.4 32.6 37.6 45.4 44.9 38.4 30.5 26.9 25.7 24.7 23.8 23.2 22.7 22.3 21.9 21.6 21.3 21.1 20.9 20.7 20.5 20.2 20.1 55.9 102.3 137.5 110.1 58.2 56.5 77.2 82.9 69.4 43.8 30.8 27.4 25.7 24.4 23.7 23.1 22.6 22.2 21.8 21.5 21.2 21.0 20.7 20.5 20.2 20.1 55.0 99.1 164.9 165.1 108.9 134.3 193.2 194.6 160.5 93.3 42.4 29.3 26.7 25.2 24.2 23.4 22.8 22.4 21.9 21.5 21.2 20.9 20.7 20.5 20.2 20.1 52.0 95.5 163.8 168.8 132.7 197.0 271.2 264.1 222.1 126.6 46.9 29.2 27.0 25.5 24.3 23.5 22.9 22.4 21.9 21.5 21.2 20.9 20.6 20.4 20.2 20.1 39.9 77.1 124.3 116.7 92.2 133.8 169.0 161.0 139.9 83.7 36.2 27.6 26.2 25.1 24.1 23.3 22.7 22.2 21.8 21.4 21.1 20.8 20.6 20.4 20.2 20.1 28.6 40.8 59.1 57.5 47.2 54.4 59.8 54.1 47.5 37.4 28.2 26.1 25.1 24.3 23.5 22.9 22.4 22.0 21.7 21.4 21.1 20.8 20.6 20.4 20.2 20.1 24.0 27.2 33.3 36.7 35.0 34.9 35.6 32.9 29.1 27.5 26.2 25.2 24.3 23.6 23.0 22.5 22.1 21.8 21.5 21.3 21.0 20.8 20.6 20.4 20.2 20.1 20.0 20.1 20.1 20.1 20.0 20.0 20.0 20.0 20.0 20.0 20.0 20.0 20.0 20.0 20.0 20.1 20.1 20.1 20.0 20.0 20.0 20.1 20.1 20.0 20.0 20.0 20.1 20.1 20.1 20.1 20.1 20.1 20.1 20.1 20.1 20.1 20.1 20.1 20.1 20.1 20.1 20.1 20.1 20.1 20.1 20.1 20.1 20.1 20.1 20.1 20.0 20.0 20.2 20.2 20.3 20.3 20.2 20.2 20.2 20.2 20.2 20.2 20.2 20.2 20.2 20.2 20.2 20.2 20.2 20.2 20.2 20.2 20.2 20.2 20.1 20.1 20.0 20.0 20.3 20.3 20.4 20.4 20.4 20.3 20.3 20.4 20.4 20.4 20.3 20.3 20.3 20.3 20.3 20.3 20.3 20.3 20.3 20.3 20.2 20.2 20.2 20.1 20.1 20.0 20.4 20.4 20.5 20.5 20.5 20.5 20.5 20.5 20.5 20.5 20.4 20.4 20.4 20.4 20.4 20.4 20.4 20.4 20.4 20.3 20.3 20.2 20.2 20.1 20.1 20.0 20.5 20.6 20.6 20.7 20.7 20.6 20.6 20.7 20.7 20.7 20.6 20.6 20.5 20.5 20.5 20.5 20.5 20.5 20.5 20.4 20.3 20.3 20.2 20.1 20.1 20.0 20.6 20.7 20.7 20.8 20.8 20.8 20.8 20.9 20.9 20.8 20.7 20.7 20.7 20.7 20.6 20.6 20.6 20.6 20.5 20.4 20.4 20.3 20.2 20.1 20.1 20.0 20.7 20.8 20.9 21.0 21.0 21.0 21.0 21.1 21.1 21.0 20.9 20.9 20.9 20.8 20.8 20.8 20.8 20.7 20.6 20.5 20.4 20.3 20.2 20.2 20.1 20.0 20.9 21.0 21.1 21.2 21.2 21.2 21.2 21.3 21.3 21.2 21.1 21.1 21.1 21.0 21.0 21.0 20.9 20.8 20.7 20.6 20.5 20.4 20.3 20.2 20.1 20.0 21.1 21.2 21.3 21.4 21.5 21.5 21.6 21.6 21.6 21.5 21.4 21.3 21.2 21.2 21.2 21.1 21.0 20.9 20.7 20.6 20.5 20.4 20.3 20.2 20.1 20.0 21.3 21.4 21.5 21.6 21.7 21.8 21.9 22.0 21.9 21.7 21.6 21.5 21.4 21.4 21.3 21.2 21.1 20.9 20.8 20.6 20.5 20.4 20.3 20.2 20.1 20.0 21.5 21.6 21.8 21.9 22.0 22.1 22.3 22.3 22.2 22.0 21.9 21.8 21.7 21.6 21.4 21.3 21.2 21.0 20.9 20.7 20.6 20.4 20.3 20.2 20.1 20.0 21.7 21.9 22.1 22.2 22.4 22.5 22.7 22.7 22.6 22.3 22.2 22.1 21.9 21.8 21.6 21.5 21.3 21.1 20.9 20.8 20.6 20.5 20.4 20.2 20.1 20.1 22.0 22.2 22.4 22.6 22.8 23.0 23.1 23.2 22.9 22.7 22.5 22.4 22.2 22.0 21.8 21.6 21.4 21.2 21.0 20.8 20.7 20.5 20.4 20.3 20.1 20.1 22.3 22.6 22.9 23.1 23.3 23.6 23.8 23.7 23.4 23.1 23.0 22.8 22.5 22.2 22.0 21.8 21.5 21.3 21.1 20.9 20.7 20.6 20.4 20.3 20.1 20.1 22.8 23.3 23.7 23.8 24.0 24.4 24.6 24.5 24.1 23.8 23.5 23.2 22.8 22.5 22.2 22.0 21.7 21.4 21.2 20.9 20.7 20.6 20.4 20.3 20.1 20.1 25.8 25.9 26.4 25.4 25.4 25.7 25.7 25.4 24.9 24.5 24.0 23.6 23.2 22.8 22.4 22.1 21.8 21.5 21.2 21.0 20.8 20.6 20.5 20.3 20.2 20.1 36.4 42.3 37.8 26.9 27.3 28.7 27.9 26.9 26.1 25.3 24.7 24.1 23.6 23.1 22.7 22.3 21.9 21.6 21.3 21.1 20.9 20.7 20.5 20.3 20.2 20.1 60.3 80.4 61.0 29.8 29.8 33.6 32.5 30.7 28.7 26.6 25.4 24.7 24.0 23.4 22.9 22.5 22.1 21.7 21.4 21.2 21.0 20.8 20.6 20.4 20.2 20.1 84.4 117.1 86.4 38.7 34.7 39.8 41.7 46.7 40.9 29.8 26.7 25.4 24.6 23.8 23.3 22.8 22.3 22.0 21.6 21.4 21.1 20.9 20.7 20.4 20.2 20.1 98.4 141.8 120.3 61.6 51.3 59.6 68.9 98.6 87.5 45.7 30.7 26.9 25.4 24.4 23.8 23.2 22.6 22.2 21.9 21.5 21.2 20.9 20.7 20.4 20.2 20.1 98.3 142.9 137.8 96.9 117.5 147.3 158.7 197.2 181.6 98.8 43.7 28.8 26.3 25.1 24.2 23.4 22.8 22.3 21.9 21.5 21.2 20.9 20.6 20.4 20.2 20.1 82.2 136.1 137.1 109.0 161.8 216.1 216.2 235.0 209.6 113.8 47.0 28.9 26.6 25.5 24.4 23.5 22.9 22.3 21.9 21.5 21.2 20.9 20.6 20.4 20.2 20.1 59.3 113.3 126.1 95.7 109.5 140.8 139.4 146.5 123.3 65.0 35.4 27.4 25.9 25.1 24.2 23.4 22.8 22.3 21.8 21.5 21.2 20.9 20.6 20.4 20.2 20.1 38.8 63.3 85.8 78.8 59.7 55.7 56.7 58.2 49.2 34.8 28.6 26.2 25.0 24.3 23.6 23.0 22.5 22.1 21.7 21.4 21.2 20.9 20.7 20.4 20.2 20.1 26.7 33.1 46.0 52.9 44.7 37.5 35.7 33.1 29.5 27.5 26.3 25.2 24.4 23.7 23.1 22.6 22.2 21.8 21.5 21.3 21.1 20.9 20.6 20.4 20.2 20.1 20.0 20.1 20.1 20.1 20.1 20.0 20.0 20.0 20.0 20.0 20.0 20.0 20.0 20.0 20.1 20.1 20.1 20.1 20.0 20.0 20.0 20.1 20.1 20.1 20.0 20.0 20.1 20.1 20.1 20.1 20.1 20.1 20.1 20.1 20.1 20.1 20.1 20.1 20.1 20.1 20.1 20.1 20.1 20.1 20.1 20.1 20.1 20.1 20.1 20.1 20.1 20.0 20.2 20.2 20.2 20.2 20.2 20.2 20.2 20.2 20.2 20.2 20.2 20.2 20.2 20.2 20.2 20.2 20.2 20.2 20.2 20.2 20.2 20.2 20.2 20.1 20.1 20.0 20.3 20.3 20.3 20.4 20.4 20.3 20.3 20.4 20.4 20.4 20.3 20.3 20.3 20.3 20.3 20.3 20.3 20.3 20.3 20.3 20.3 20.2 20.2 20.1 20.1 20.0 20.4 20.4 20.4 20.5 20.5 20.5 20.5 20.5 20.5 20.5 20.5 20.4 20.4 20.4 20.4 20.4 20.4 20.4 20.4 20.4 20.3 20.3 20.2 20.1 20.1 20.0 20.5 20.5 20.6 20.6 20.6 20.6 20.6 20.7 20.7 20.7 20.6 20.6 20.6 20.6 20.5 20.5 20.5 20.5 20.5 20.5 20.4 20.3 20.2 20.1 20.1 20.0 20.6 20.7 20.7 20.8 20.8 20.8 20.8 20.9 20.9 20.8 20.8 20.8 20.7 20.7 20.7 20.7 20.7 20.6 20.6 20.5 20.4 20.3 20.3 20.2 20.1 20.0 20.8 20.8 20.9 21.0 21.0 21.0 21.0 21.1 21.1 21.0 21.0 20.9 20.9 20.9 20.9 20.9 20.8 20.8 20.7 20.6 20.5 20.4 20.3 20.2 20.1 20.1 21.0 21.0 21.1 21.2 21.2 21.2 21.2 21.3 21.3 21.3 21.2 21.2 21.1 21.1 21.1 21.0 21.0 20.9 20.7 20.6 20.5 20.4 20.3 20.2 20.1 20.1 21.2 21.3 21.3 21.4 21.5 21.5 21.6 21.6 21.6 21.5 21.4 21.4 21.3 21.3 21.2 21.2 21.0 20.9 20.8 20.6 20.5 20.4 20.3 20.2 20.1 20.1 21.4 21.5 21.6 21.7 21.8 21.8 21.9 22.0 21.9 21.8 21.7 21.6 21.5 21.5 21.4 21.3 21.1 21.0 20.8 20.7 20.5 20.4 20.3 20.2 20.1 20.1 21.6 21.7 21.9 22.0 22.1 22.2 22.3 22.3 22.2 22.0 21.9 21.9 21.8 21.7 21.5 21.4 21.2 21.1 20.9 20.7 20.6 20.4 20.3 20.2 20.1 20.1 21.8 22.0 22.2 22.3 22.4 22.5 22.7 22.7 22.6 22.4 22.2 22.2 22.0 21.9 21.7 21.6 21.4 21.2 21.0 20.8 20.6 20.5 20.4 20.3 20.1 20.1 22.1 22.3 22.5 22.6 22.8 23.0 23.2 23.2 23.0 22.7 22.6 22.4 22.2 22.1 21.9 21.7 21.5 21.3 21.1 20.9 20.7 20.5 20.4 20.3 20.1 20.1 22.4 22.7 22.9 23.2 23.4 23.6 23.7 23.7 23.5 23.2 23.0 22.8 22.5 22.3 22.1 21.8 21.6 21.3 21.1 20.9 20.7 20.6 20.4 20.3 20.1 20.1 22.8 23.2 23.5 23.7 23.9 24.2 24.5 24.4 24.1 23.8 23.5 23.2 22.9 22.6 22.4 22.0 21.7 21.4 21.2 20.9 20.7 20.6 20.4 20.3 20.1 20.1 25.3 25.1 25.4 25.2 25.0 25.1 25.3 25.3 24.9 24.5 24.0 23.5 23.2 22.9 22.6 22.2 21.8 21.5 21.2 21.0 20.8 20.6 20.5 20.3 20.2 20.1 40.0 37.9 31.9 26.5 27.3 27.0 27.1 27.6 26.7 25.2 24.6 24.1 23.6 23.2 22.8 22.3 21.9 21.6 21.3 21.1 20.9 20.7 20.5 20.3 20.2 20.1 78.5 73.5 46.8 29.8 31.7 30.7 31.1 31.4 29.1 26.2 25.3 24.7 24.1 23.6 23.0 22.5 22.1 21.7 21.4 21.2 21.0 20.8 20.6 20.4 20.2 20.1 114.8 119.8 78.5 50.2 48.0 39.0 39.3 44.4 38.9 28.9 26.4 25.3 24.6 24.0 23.3 22.7 22.3 21.9 21.6 21.3 21.1 20.8 20.6 20.4 20.2 20.1 129.0 151.3 108.3 73.6 74.4 62.5 68.7 98.7 87.1 43.1 29.6 26.5 25.4 24.5 23.8 23.1 22.6 22.1 21.8 21.4 21.1 20.8 20.6 20.4 20.2 20.1 114.2 151.5 125.6 118.8 146.1 141.3 148.7 187.5 169.8 84.6 39.3 28.1 26.1 25.1 24.3 23.4 22.8 22.3 21.9 21.5 21.1 20.8 20.6 20.4 20.2 20.1 88.1 141.4 131.1 143.5 179.8 171.5 172.0 204.2 178.7 87.5 41.7 28.3 26.2 25.4 24.5 23.5 22.8 22.3 21.9 21.5 21.1 20.8 20.6 20.4 20.2 20.1 75.1 127.2 129.9 119.3 117.9 102.8 102.4 131.7 109.0 49.5 33.4 27.2 25.7 24.9 24.2 23.4 22.8 22.3 21.9 21.5 21.2 20.9 20.6 20.4 20.2 20.1 54.9 84.7 106.8 98.2 72.4 55.5 52.5 62.0 52.8 33.2 28.3 26.2 25.1 24.3 23.6 23.1 22.6 22.1 21.8 21.5 21.2 20.9 20.7 20.4 20.2 20.1 31.8 42.8 57.6 61.8 49.5 38.4 35.4 33.1 29.7 27.3 26.2 25.3 24.5 23.8 23.2 22.6 22.2 21.9 21.6 21.3 21.1 20.9 20.7 20.4 20.2 20.1 20.1 20.1 20.1 20.1 20.1 20.1 20.0 20.0 20.0 20.1 20.1 20.1 20.1 20.1 20.1 20.1 20.1 20.1 20.1 20.1 20.1 20.1 20.1 20.1 20.1 20.0 20.1 20.1 20.1 20.1 20.1 20.1 20.1 20.1 20.1 20.1 20.1 20.1 20.1 20.1 20.1 20.1 20.1 20.1 20.1 20.1 20.1 20.1 20.1 20.1 20.1 20.0 20.2 20.2 20.2 20.2 20.2 20.2 20.2 20.2 20.2 20.2 20.2 20.2 20.2 20.2 20.2 20.2 20.2 20.2 20.2 20.2 20.2 20.2 20.2 20.1 20.1 20.0 20.3 20.3 20.3 20.4 20.4 20.3 20.3 20.3 20.4 20.3 20.3 20.3 20.3 20.3 20.3 20.4 20.3 20.3 20.3 20.3 20.3 20.3 20.2 20.1 20.1 20.0 20.4 20.4 20.5 20.5 20.5 20.5 20.5 20.5 20.5 20.5 20.5 20.5 20.5 20.5 20.5 20.5 20.5 20.4 20.4 20.4 20.4 20.3 20.2 20.1 20.1 20.0 20.6 20.6 20.6 20.7 20.7 20.6 20.6 20.7 20.7 20.7 20.6 20.6 20.6 20.6 20.6 20.6 20.6 20.5 20.5 20.5 20.4 20.3 20.3 20.2 20.1 20.0 20.8 20.8 20.8 20.8 20.8 20.8 20.8 20.8 20.9 20.9 20.8 20.8 20.8 20.8 20.8 20.8 20.7 20.7 20.6 20.6 20.5 20.4 20.3 20.2 20.1 20.0 21.0 21.0 21.0 21.0 21.0 21.0 21.0 21.0 21.1 21.1 21.1 21.0 21.0 21.0 20.9 20.9 20.9 20.8 20.7 20.6 20.6 20.4 20.3 20.2 20.1 20.0 21.2 21.2 21.2 21.2 21.3 21.2 21.2 21.3 21.3 21.3 21.3 21.3 21.2 21.2 21.1 21.1 21.0 20.9 20.8 20.7 20.6 20.4 20.3 20.2 20.1 20.1 21.4 21.4 21.4 21.4 21.5 21.5 21.5 21.6 21.6 21.6 21.5 21.5 21.4 21.3 21.3 21.2 21.1 21.0 20.9 20.7 20.6 20.4 20.3 20.2 20.1 20.1 21.6 21.7 21.7 21.7 21.8 21.8 21.9 21.9 21.9 21.9 21.8 21.7 21.6 21.5 21.4 21.3 21.2 21.0 20.9 20.7 20.6 20.4 20.3 20.2 20.1 20.1 21.7 21.9 22.0 22.0 22.1 22.1 22.2 22.3 22.2 22.1 22.1 22.0 21.9 21.7 21.6 21.4 21.3 21.1 21.0 20.8 20.6 20.5 20.4 20.3 20.1 20.1 22.0 22.2 22.3 22.4 22.4 22.5 22.6 22.7 22.6 22.5 22.4 22.3 22.1 21.9 21.8 21.6 21.4 21.3 21.1 20.9 20.7 20.5 20.4 20.3 20.1 20.1 22.4 22.6 22.7 22.7 22.8 23.0 23.2 23.2 23.1 22.8 22.7 22.5 22.3 22.1 22.0 21.7 21.5 21.4 21.2 20.9 20.7 20.6 20.4 20.3 20.1 20.1 22.7 22.9 23.1 23.2 23