<?xml version="1.0"?>
<VTKFile type="PolyData" version="1.0" byte_order="LittleEndian" header_type="UInt64">
<PolyData>
<Piece NumberOfPoints="1386" NumberOfVerts="0" NumberOfLines="0" NumberOfPolys="0">
    <Points>
        <DataArray type="Float32" NumberOfComponents="3" format="ascii">
        17.0715 11.8090 4.1356 15.3209 5.7212 6.1030 17.2342 10.8534 3.9730 16.0233 8.5459 3.9537 16.9535 11.6961 4.2536 16.8670 10.4736 4.3401 16.6970 10.0000 2.4568 16.4024 8.6119 3.3298 17.4187 10.9694 3.7885 16.3702 8.1801 3.7204 16.9479 11.4927 4.2592 17.4523 10.7971 3.7548 16.8744 10.4211 4.3327 16.8098 10.0000 3.7085 15.7723 9.3031 3.4691 17.1073 7.7916 4.1952 16.7166 7.4257 4.1651 17.4751 10.6403 3.7320 16.6356 8.4117 3.7910 17.0546 7.8975 4.0579 17.8241 10.9405 3.3830 16.7850 8.1872 3.8725 17.1242 10.7533 4.0829 16.1479 6.5733 5.6618 17.0645 7.8711 4.2110 16.6052 6.9969 4.4481 16.5860 8.0611 3.5840 17.2723 11.0138 3.9348 17.2217 10.3841 3.9854 17.4111 11.3958 3.7960 17.3205 11.6778 3.8867 15.7958 6.6248 5.5135 17.0622 7.5920 4.3937 16.6554 7.3965 5.2818 17.3137 10.6691 3.8934 17.2202 10.7172 3.9869 15.9605 7.0233 5.2714 17.5518 11.3442 3.6553 16.0778 8.3539 4.4396 17.2834 11.2595 3.9237 17.1152 11.4091 4.0919 17.0629 11.3775 4.1442 16.7241 7.0572 4.4901 16.7878 9.8969 2.4008 16.9699 11.8496 4.2373 17.5520 11.3436 3.6551 16.5034 6.7572 5.4418 17.0366 11.4619 4.1705 17.2097 11.6011 3.9974 16.6437 7.7256 4.3402 16.8564 11.8788 4.3507 17.1050 11.6021 4.1021 17.3517 11.3823 3.8554 16.5808 7.9656 3.8002 16.2530 10.0000 3.6397 17.5537 10.9569 3.6534 16.0082 8.3193 4.7189 16.5513 7.4641 4.3991 16.5869 7.7299 4.6696 16.8737 11.4671 4.3334 15.8848 8.4730 4.6820 17.2837 11.5779 3.9234 16.9449 10.0000 2.2904 16.9158 11.5216 4.2913 17.0779 11.5240 4.1293 16.7063 7.3917 4.4755 16.9639 7.6067 4.4981 16.5926 9.9656 3.2711 16.6842 6.9917 4.5577 17.1201 11.7614 4.0870 17.3679 11.7207 3.8393 17.0782 11.9193 4.1289 17.5288 10.6759 3.6783 17.6637 11.2057 3.5434 17.4948 10.6253 3.7123 16.7755 11.9905 4.4316 16.8766 9.9099 2.0692 17.6010 11.0829 3.6061 17.0255 6.4165 5.2233 16.6932 7.3136 4.5573 16.7371 10.0000 2.8292 16.5292 6.8308 5.2117 16.8001 9.9544 3.9441 16.8664 10.0000 2.2639 17.3102 11.5708 3.8969 17.5230 10.6017 3.6841 17.1853 11.1138 4.0218 15.4507 8.3387 5.5188 16.8670 10.0000 2.3001 16.4013 8.1848 4.5158 17.8753 10.9840 3.3318 16.2065 7.0083 5.2265 17.2579 11.4858 3.9492 16.9655 11.5462 4.2416 16.7765 7.0668 4.4336 17.5334 10.7221 3.6737 16.5009 6.9645 4.8063 16.0201 6.5169 5.8218 16.1385 3.7927 6.9527 15.9139 5.9128 6.2895 16.6481 12.2802 4.5590 17.6895 11.1277 3.5176 16.8071 6.4231 5.5040 16.7738 7.5525 4.6782 16.3362 7.4591 5.3545 16.3592 9.8392 3.7512 15.7852 9.0426 4.9364 17.4281 10.9168 3.7790 17.1628 11.6123 4.0443 17.2608 11.4118 3.9463 17.1024 11.4152 4.1047 16.8260 11.6140 4.3811 15.4439 9.1258 5.0410 16.7435 6.9988 4.8851 17.2202 11.8200 3.9869 15.9646 9.6550 2.9369 17.3450 10.7750 3.8621 15.3337 7.2567 6.5732 17.2422 11.5921 3.9649 16.8544 11.7851 4.3527 17.3516 10.4958 3.8555 16.5528 9.9421 4.6543 17.5653 10.8178 3.6418 16.7013 12.2295 4.5058 17.4083 10.7594 3.7988 15.9733 8.7360 4.8270 15.9631 2.9739 7.1361 17.2034 11.4103 4.0037 16.9197 11.9913 4.2874 17.0963 11.6823 4.1108 17.4433 11.4981 3.7638 15.9311 9.7141 4.0705 16.7627 11.9665 4.4444 17.3155 11.2524 3.8916 15.0055 8.3684 6.1101 16.7367 11.8899 4.4704 16.6561 6.3543 5.7705 17.4247 10.8873 3.7824 17.2586 11.7293 3.9486 17.0642 11.6621 4.1429 16.9641 11.6809 4.2431 17.4248 10.4161 3.7823 17.0168 4.8614 6.3199 16.4062 6.7735 5.4763 16.6637 10.0000 3.5546 16.6171 4.4147 6.7340 17.2962 10.5293 3.9109 17.0992 11.6405 4.1079 16.5745 10.0000 3.4831 17.2463 10.3772 3.9608 16.9727 11.9092 4.2344 17.4959 10.6705 3.7112 16.7906 5.1004 6.4697 17.4092 10.5063 3.7979 16.9659 11.8447 4.2412 17.2785 10.3075 3.9286 16.7219 11.8141 4.4852 17.6446 10.5255 3.5625 17.3173 11.3054 3.8898 17.5908 10.6904 3.6163 15.9130 8.8991 5.4192 17.8250 10.9908 3.3821 17.4801 11.2571 3.7270 17.3260 10.2295 3.8811 16.6851 10.0000 4.1081 16.1935 6.0604 6.5177 16.9152 11.7284 4.2919 17.1501 11.7043 4.0570 17.4288 11.6384 3.7783 17.6211 10.8315 3.5861 16.8133 10.2371 4.3938 16.7753 10.0424 4.8133 17.2756 11.5117 3.9315 16.3447 5.7403 6.6281 16.1551 10.0000 4.4133 17.2375 10.3841 3.9697 17.0019 11.8484 4.2052 15.9048 9.8192 4.3460 17.4935 10.5962 3.7136 17.4960 11.5347 3.7111 17.6859 10.5505 3.5212 17.4330 10.5890 3.7741 16.8003 11.8724 4.4068 17.0244 11.9327 4.1827 17.6882 11.2630 3.5189 15.8032 10.1240 4.9600 15.8796 9.1642 5.1987 17.4077 11.5952 3.7994 17.2059 11.7283 4.0013 16.5019 10.1109 4.7052 17.5242 11.1909 3.6829 15.0275 8.8563 6.3806 16.2427 10.2001 4.9644 17.4772 10.1469 3.7299 17.4394 11.2516 3.7677 17.7136 11.2658 3.4935 17.2111 11.6045 3.9960 15.5587 9.5155 5.3911 17.3235 11.2962 3.8836 15.0608 9.7088 6.3474 16.6850 12.1446 4.5221 16.5172 10.1041 4.9652 17.7565 11.2869 3.4506 17.2737 11.2948 3.9334 17.5532 11.3859 3.6539 15.8078 9.3959 4.9941 15.2560 8.8115 6.4034 17.2174 11.1890 3.9897 17.6020 10.4991 3.6051 16.9592 11.6226 4.2479 15.4663 9.0631 5.7881 15.8717 5.3159 7.5038 15.7330 9.9229 5.1947 15.6463 9.2668 5.3978 16.2798 10.1984 5.0098 16.4216 9.9541 4.9365 17.2320 11.3279 3.9751 17.2453 11.8663 3.9618 16.7270 11.9924 4.4801 15.2511 9.5493 5.9641 16.9768 11.4616 4.2303 16.7092 10.1194 4.9881 16.7500 11.8579 4.4571 16.7391 12.3578 4.4680 17.5384 10.5285 3.6687 16.1096 10.3117 5.0975 17.7627 11.0602 3.4444 16.4539 10.1908 4.7727 17.6275 10.7568 3.5797 17.6614 10.5008 3.5457 17.1165 11.6968 4.0906 17.1106 11.7127 4.0965 17.6646 10.8925 3.5425 17.3493 11.4219 3.8578 16.5996 12.1398 4.6075 17.3825 11.7711 3.8246 17.4653 10.9115 3.7418 17.6808 10.7549 3.5263 17.5764 11.2117 3.6307 17.5690 11.1730 3.6382 16.7965 11.7226 4.4106 16.8984 11.5766 4.3087 16.1668 10.2708 5.0403 17.4371 11.8878 3.7700 16.7803 10.2534 4.7524 15.9866 10.2402 5.2205 16.7843 10.3218 4.5018 15.3364 8.7958 6.3864 16.1469 10.1353 5.1438 17.6550 10.7827 3.5521 16.2171 9.7689 5.0355 16.2174 9.8377 4.9333 17.4077 10.9290 3.7994 16.8364 11.9534 4.3707 16.6650 8.5854 5.2766 15.1577 9.1011 6.7981 16.9038 11.8108 4.3033 16.6165 11.8276 4.5906 17.7182 10.7743 3.4889 17.5861 11.2476 3.6210 17.2333 9.5802 3.4840 17.1105 11.5148 4.0966 16.9089 11.7028 4.2982 17.6841 11.0431 3.5231 17.0923 10.3664 4.1148 17.4080 10.5207 3.7991 17.4263 10.7835 3.8669 17.3212 10.9204 3.8859 16.0444 9.8212 4.8177 16.5843 12.8198 4.6228 17.0542 11.7894 4.1530 17.5496 10.6621 3.9744 15.5983 9.6612 5.5342 17.0541 11.9396 4.1530 17.1705 10.4604 4.0366 17.6299 11.0724 3.9799 17.4611 10.9436 3.7460 15.7490 4.9756 7.6913 16.5061 9.6195 4.0994 17.4246 10.5379 3.7826 17.2384 11.5559 3.9687 16.8262 10.1565 4.8156 17.4217 10.9948 3.7854 15.9598 9.9897 5.2972 17.2564 11.1692 3.9507 16.3905 9.7756 4.3937 15.9125 9.9376 4.9500 17.0908 10.0000 4.1163 15.9313 9.8871 4.6656 16.9856 9.1954 5.0641 16.0757 9.1276 4.5498 17.6257 10.5777 3.5814 17.3255 11.6560 3.8816 17.4422 11.3709 3.7649 17.8350 10.9732 3.3722 17.2656 11.1006 3.9415 17.3436 10.7109 3.8635 15.6011 9.1345 5.8727 17.2865 10.9788 3.9206 17.2663 10.2477 3.9408 16.2922 9.8119 5.0136 16.9025 11.6610 4.3046 17.1939 11.2439 4.0132 16.6392 12.3668 4.5679 16.7175 11.7024 4.4896 17.5597 10.3986 3.6474 15.2362 9.6028 6.3111 17.6755 11.1630 3.5316 17.2128 11.5027 3.9943 15.8374 8.9715 4.7448 16.5210 8.8687 4.3061 17.6538 10.8859 3.5533 16.3970 9.7544 5.2710 17.1553 11.5094 4.0519 17.3265 11.2056 3.8806 16.0326 9.2457 5.2341 17.3123 11.4364 3.8948 17.1828 11.4131 4.0243 16.9715 11.7362 4.2356 17.3367 11.7689 3.8704 16.9939 9.8698 4.6628 17.3590 10.7358 3.8481 16.7187 11.8786 4.4884 17.2157 11.7430 3.9914 17.3940 10.8146 3.8131 16.8040 12.5275 4.4031 17.1264 11.2348 4.0807 16.0357 9.3308 5.1403 17.1246 11.5379 4.0825 17.6267 10.8229 3.5804 17.1497 11.5845 4.0574 17.4609 9.8638 3.4330 17.4306 11.5382 3.7765 15.8778 8.9787 5.1209 17.2586 11.9345 3.9485 15.3298 9.3004 6.1532 17.2734 11.1133 3.9337 16.5316 12.0138 4.6756 15.6405 9.6628 5.3251 17.4596 11.5412 3.7476 17.4885 11.4566 3.7186 16.6995 12.2669 4.5076 16.9649 11.0732 4.2422 16.0498 8.8173 5.3579 16.6279 12.2421 4.5792 16.1199 8.8424 6.0913 17.3647 10.6756 3.8424 17.5678 11.3753 3.6393 15.8168 8.6910 5.3124 17.2970 10.9072 3.9101 16.7471 12.1997 4.4600 16.3255 6.5316 6.2002 17.6214 10.8737 3.5857 17.4006 11.5754 3.8065 17.5301 10.1220 4.1134 15.7930 8.9455 5.8439 16.4415 7.3836 5.4483 17.3599 10.5415 3.8472 16.5283 8.7378 4.1893 16.5830 8.9467 5.7768 17.6111 10.4695 3.5960 17.1993 9.6008 4.8385 17.3255 11.3328 3.8816 16.5993 11.9061 4.6078 16.8927 11.7894 4.3144 17.5241 11.0200 3.6830 16.7496 11.9024 4.4575 16.4439 12.6754 4.7632 16.4469 8.3437 5.5328 16.4766 9.9375 4.2753 17.2823 11.5607 3.9248 16.8527 11.2918 4.3544 17.4000 11.5043 3.8071 17.4735 11.1747 3.7336 17.1908 11.6170 4.0163 17.3057 9.7559 3.6275 17.1262 11.3590 4.0810 17.6017 10.6676 3.6054 17.3671 11.4879 3.8400 16.5883 9.5284 4.1082 17.2438 10.6405 3.9633 16.2953 8.9071 5.6066 17.2357 10.7339 3.9714 15.4568 8.6280 5.7286 16.5810 9.5210 4.8323 17.5009 10.0657 4.4601 17.2556 10.6640 3.9515 17.1230 11.8727 4.0841 16.8148 8.4710 5.5464 16.5730 12.1742 4.6341 17.0725 10.3952 4.1346 16.4871 11.8936 4.7200 15.8063 6.6225 6.6195 17.4181 11.4725 3.7891 16.5224 9.4873 3.5343 17.2791 10.7295 3.9280 17.0117 11.1833 4.1954 16.5958 12.0229 4.6113 16.6176 11.9892 4.5895 17.6528 10.7568 3.5544 16.6968 11.8721 4.5103 16.6579 11.4745 4.5492 17.5314 11.6563 3.6757 16.5630 9.4496 4.9171 16.6165 12.1758 4.5906 16.9109 11.2785 4.2962 16.9458 11.5947 4.2613 16.4690 12.5754 4.7381 17.0097 11.4744 4.1974 17.4858 11.5848 3.7213 16.6614 12.9431 4.5457 16.2230 9.7171 3.6940 16.7230 8.6090 5.9555 17.1589 11.8812 4.0482 17.0660 11.7672 4.1411 16.5632 12.9176 4.6439 16.2466 8.3024 5.9142 15.0661 9.2569 6.3887 17.4961 10.5877 3.7110 16.7433 12.2184 4.4638 16.0382 6.7906 6.1463 17.7337 10.7129 3.4734 15.8312 8.3717 5.4205 16.6375 12.3189 4.5696 15.0283 7.2067 6.4000 17.5688 11.2034 3.6383 16.6768 12.1934 4.5303 16.6134 12.
[...]
    <PointData>
        <DataArray type="Float32" Name="tag" format="ascii">
            63.0000 131.0000 207.0000 219.0000 287.0000 299.0000 351.0000 379.0000 383.0000 455.0000 491.0000 627.0000 739.0000 935.0000 1023.0000 1099.0000 1119.0000 1131.0000 1171.0000 1211.0000 1307.0000 1551.0000 1567.0000 1791.0000 1803.0000 1855.0000 1859.0000 1883.0000 1907.0000 1927.0000 1991.0000 2035.0000 2083.0000 2191.0000 2391.0000 2475.0000 2491.0000 2563.0000 2623.0000 2767.0000 2959.0000 3023.0000 3087.0000 3091.0000 3167.0000 3195.0000 3271.0000 3323.0000 3375.0000 3423.0000 3463.0000 3495.0000 3567.0000 3607.0000 3663.0000 3711.0000 3775.0000 3795.0000 3819.0000 3839.0000 3883.0000 3903.0000 3943.0000 3983.0000 4015.0000 4067.0000 4127.0000 4183.0000 4187.0000 4247.0000 4271.0000 4291.0000 4395.0000 4403.0000 4415.0000 4463.0000 4515.0000 4551.0000 4555.0000 4583.0000 4615.0000 4643.0000 4751.0000 4843.0000 4851.0000 4891.0000 4899.0000 4947.0000 5015.0000 5035.0000 5107.0000 5115.0000 5139.0000 5227.0000 5271.0000 5299.0000 5455.0000 5643.0000 5655.0000 5703.0000 5739.0000 5767.0000 5815.0000 5867.0000 5891.0000 6055.0000 6207.0000 6275.0000 6367.0000 6411.0000 6559.0000 6627.0000 6663.0000 6671.0000 6691.0000 6795.0000 6851.0000 6911.0000 6927.0000 6943.0000 7147.0000 7175.0000 7183.0000 7231.0000 7427.0000 7495.0000 7575.0000 7579.0000 7587.0000 7747.0000 7767.0000 7783.0000 7803.0000 7867.0000 7883.0000 7903.0000 7919.0000 7983.0000 8075.0000 8179.0000 8187.0000 8199.0000 8263.0000 8291.0000 8367.0000 8603.0000 8615.0000 8723.0000 8803.0000 8815.0000 8931.0000 9019.0000 9027.0000 9039.0000 9183.0000 9255.0000 9267.0000 9295.0000 9379.0000 9459.0000 9471.0000 9639.0000 9695.0000 9751.0000 9799.0000 9963.0000 9995.0000 10003.0000 10063.0000 10131.0000 10155.0000 10279.0000 10303.0000 10311.0000 10419.0000 10495.0000 10499.0000 10515.0000 10531.0000 10583.0000 10691.0000 10763.0000 10803.0000 10867.0000 11015.0000 11051.0000 11283.0000 11307.0000 11327.0000 11351.0000 11367.0000 11435.0000 11439.0000 11471.0000 11551.0000 11567.0000 11751.0000 11759.0000 11807.0000 11855.0000 11903.0000 12011.0000 12027.0000 12127.0000 12143.0000 12171.0000 12211.0000 12219.0000 12239.0000 12275.0000 12279.0000 12283.0000 12303.0000 12359.0000 12395.0000 12411.0000 12427.0000 12459.0000 12499.0000 12631.0000 20727.0000 12719.0000 12731.0000 12755.0000 12939.0000 13023.0000 13075.0000 13083.0000 13119.0000 13179.0000 13231.0000 13395.0000 13415.0000 13647.0000 13687.0000 13727.0000 13775.0000 13787.0000 13811.0000 13847.0000 13851.0000 13871.0000 13875.0000 14051.0000 14087.0000 14151.0000 14179.0000 14215.0000 14255.0000 14295.0000 14327.0000 14491.0000 14555.0000 14611.0000 14615.0000 14763.0000 14807.0000 14827.0000 14899.0000 14903.0000 14911.0000 14939.0000 14959.0000 15039.0000 15083.0000 15279.0000 15283.0000 15399.0000 15407.0000 15427.0000 15455.0000 15567.0000 15575.0000 15647.0000 15671.0000 15695.0000 15783.0000 15847.0000 15923.0000 15935.0000 15951.0000 15971.0000 16007.0000 16031.0000 16087.0000 16099.0000 16135.0000 16147.0000 16187.0000 16327.0000 16387.0000 16539.0000 16623.0000 16643.0000 16703.0000 16807.0000 16811.0000 17007.0000 17103.0000 17231.0000 17235.0000 17371.0000 17375.0000 17387.0000 17467.0000 17555.0000 17567.0000 17651.0000 17667.0000 17795.0000 17819.0000 17903.0000 17919.0000 17931.0000 17947.0000 17955.0000 17987.0000 18027.0000 18127.0000 18203.0000 18279.0000 18511.0000 18523.0000 18707.0000 18763.0000 19027.0000 19115.0000 19143.0000 19219.0000 19231.0000 19303.0000 19347.0000 19387.0000 19395.0000 19467.0000 19547.0000 19923.0000 20015.0000 20267.0000 20295.0000 20315.0000 20359.0000 20519.0000 20707.0000 20895.0000 21071.0000 21147.0000 21239.0000 21319.0000 21323.0000 21355.0000 21383.0000 21439.0000 21447.0000 21615.0000 21671.0000 21715.0000 21719.0000 21759.0000 21819.0000 21919.0000 22071.0000 22107.0000 22139.0000 22203.0000 22311.0000 22319.0000 22339.0000 22403.0000 22467.0000 22515.0000 22595.0000 22627.0000 22835.0000 22887.0000 23071.0000 23239.0000 23255.0000 23279.0000 23315.0000 23339.0000 23355.0000 23367.0000 23371.0000 23607.0000 23623.0000 23731.0000 23755.0000 23779.0000 23783.0000 23847.0000 23855.0000 23859.0000 23899.0000 23943.0000 23951.0000 24011.0000 24079.0000 24091.0000 24127.0000 24131.0000 24151.0000 24191.0000 24223.0000 24247.0000 24307.0000 24335.0000 24367.0000 24379.0000 24415.0000 24431.0000 24463.0000 24467.0000 24555.0000 24635.0000 24655.0000 24699.0000 24707.0000 24743.0000 24783.0000 24791.0000 24847.0000 24899.0000 24939.0000 24943.0000 25011.0000 25035.0000 25071.0000 25135.0000 25151.0000 25243.0000 25263.0000 25287.0000 25303.0000 25403.0000 25435.0000 25579.0000 25603.0000 25623.0000 25655.0000 25675.0000 25739.0000 25751.0000 25755.0000 25775.0000 25855.0000 25859.0000 25971.0000 25999.0000 26039.0000 26151.0000 26175.0000 26187.0000 26207.0000 26223.0000 26259.0000 26323.0000 26375.0000 26471.0000 26495.0000 26507.0000 26599.0000 26747.0000 26751.0000 40343.0000 26815.0000 26875.0000 26959.0000 26995.0000 27071.0000 27083.0000 27091.0000 27135.0000 27227.0000 27231.0000 27291.0000 27319.0000 27327.0000 27351.0000 27387.0000 27499.0000 27527.0000 27587.0000 27635.0000 27723.0000 27735.0000 27767.0000 27967.0000 27991.0000 28031.0000 28095.0000 28103.0000 28151.0000 28199.0000 28203.0000 28207.0000 28231.0000 28295.0000 28323.0000 28351.0000 28451.0000 28467.0000 28471.0000 28479.0000 28503.0000 28523.0000 28535.0000 28619.0000 28627.0000 28675.0000 28779.0000 28843.0000 28875.0000 28883.0000 28923.0000 28959.0000 29019.0000 29159.0000 29239.0000 29267.0000 29319.0000 29407.0000 29439.0000 29511.0000 29539.0000 29571.0000 29579.0000 29635.0000 29639.0000 29719.0000 29895.0000 29991.0000 30023.0000 30075.0000 30087.0000 30251.0000 30283.0000 30379.0000 30395.0000 30583.0000 30627.0000 30655.0000 30823.0000 30827.0000 30863.0000 30895.0000 30963.0000 31099.0000 31115.0000 31167.0000 31199.0000 31219.0000 31235.0000 31247.0000 31287.0000 31619.0000 31631.0000 31639.0000 31671.0000 31679.0000 31723.0000 31731.0000 31759.0000 31763.0000 31771.0000 31855.0000 31879.0000 31915.0000 31943.0000 31951.0000 31967.0000 31979.0000 32063.0000 32091.0000 32111.0000 32163.0000 32199.0000 32255.0000 32335.0000 32479.0000 32511.0000 32547.0000 32567.0000 32607.0000 32611.0000 32667.0000 32779.0000 32795.0000 32851.0000 32859.0000 32895.0000 32943.0000 32947.0000 32979.0000 33031.0000 33063.0000 33091.0000 33107.0000 33151.0000 33283.0000 33343.0000 33351.0000 33411.0000 33435.0000 33499.0000 33563.0000 33599.0000 33843.0000 33867.0000 33891.0000 33903.0000 33911.0000 33943.0000 34103.0000 34115.0000 34135.0000 34167.0000 34183.0000 34291.0000 34295.0000 34331.0000 34423.0000 34543.0000 34571.0000 34631.0000 34675.0000 34687.0000 34791.0000 34859.0000 34975.0000 35111.0000 35187.0000 35219.0000 35239.0000 35271.0000 35359.0000 35367.0000 35383.0000 35399.0000 35487.0000 35495.0000 35535.0000 35659.0000 35675.0000 35715.0000 35779.0000 35803.0000 35855.0000 35959.0000 35963.0000 35995.0000 36071.0000 36087.0000 36135.0000 36223.0000 36359.0000 36403.0000 36435.0000 36495.0000 36535.0000 36547.0000 36599.0000 36615.0000 36691.0000 36699.0000 36711.0000 36723.0000 36791.0000 36795.0000 36803.0000 36887.0000 36919.0000 36935.0000 36947.0000 36959.0000 37043.0000 37171.0000 37263.0000 37327.0000 37363.0000 37387.0000 37503.0000 37555.0000 37583.0000 37631.0000 37647.0000 37699.0000 37731.0000 37735.0000 37759.0000 37831.0000 37843.0000 37987.0000 38003.0000 38107.0000 38127.0000 38183.0000 38203.0000 38219.0000 38247.0000 38359.0000 38395.0000 38399.0000 38419.0000 38451.0000 38455.0000 38479.0000 38487.0000 38491.0000 38523.0000 38535.0000 38583.0000 38591.0000 38627.0000 38711.0000 38735.0000 38755.0000 38775.0000 38779.0000 38879.0000 38887.0000 38927.0000 38935.0000 38959.0000 38995.0000 39019.0000 39063.0000 39147.0000 39283.0000 39331.0000 39383.0000 39407.0000 39415.0000 39447.0000 39495.0000 39535.0000 39567.0000 39575.0000 39655.0000 39659.0000 39691.0000 39843.0000 39903.0000 39907.0000 39943.0000 39963.0000 40103.0000 40119.0000 40191.0000 40211.0000 40263.0000 40323.0000 40331.0000 40335.0000 40363.0000 40375.0000 40399.0000 40439.0000 40535.0000 40551.0000 40675.0000 40703.0000 40711.0000 40727.0000 40747.0000 40855.0000 40963.0000 41095.0000 41147.0000 41155.0000 41183.0000 41231.0000 41359.0000 41367.0000 41391.0000 41447.0000 41467.0000 41479.0000 41499.0000 41515.0000 41551.0000 41567.0000 41699.0000 41727.0000 41751.0000 41883.0000 41887.0000 41895.0000 41907.0000 41939.0000 41951.0000 41959.0000 42015.0000 42099.0000 42139.0000 42215.0000 42219.0000 42223.0000 42351.0000 42375.0000 42403.0000 42419.0000 42491.0000 42719.0000 42815.0000 42875.0000 42915.0000 42923.0000 42963.0000 42967.0000 43031.0000 43043.0000 43115.0000 43187.0000 43239.0000 43311.0000 43347.0000 43351.0000 43367.0000 43411.0000 43467.0000 43479.0000 43483.0000 43535.0000 43607.0000 43647.0000 43815.0000 43867.0000 43903.0000 43959.0000 43991.0000 44003.0000 44151.0000 44159.0000 44211.0000 44219.0000 44311.0000 44331.0000 44371.0000 44391.0000 44487.0000 44539.0000 44627.0000 44851.0000 44899.0000 44927.0000 45039.0000 45131.0000 45135.0000 45231.0000 45287.0000 45315.0000 45339.0000 45371.0000 45395.0000 45595.0000 45611.0000 45619.0000 45715.0000 45723.0000 45727.0000 45779.0000 45823.0000 45827.0000 45859.0000 45875.0000 45887.0000 45931.0000 45963.0000 45999.0000 46031.0000 46091.0000 46115.0000 46239.0000 46275.0000 46291.0000 46347.0000 46351.0000 46363.0000 46443.0000 46491.0000 46535.0000 46607.0000 46623.0000 46627.0000 46683.0000 46687.0000 46715.0000 46735.0000 46743.0000 46763.0000 46803.0000 46883.0000 46887.0000 46895.0000 54359.0000 50003.0000 58755.0000 57135.0000 58751.0000 64467.0000 65415.0000 60363.0000 59571.0000 55187.0000 62027.0000 61231.0000 58735.0000 64439.0000 66311.0000 66307.0000 56171.0000 56167.0000 58715.0000 64427.0000 57107.0000 63635.0000 63627.0000 64419.0000 57991.0000 65379.0000 62795.0000 66299.0000 62791.0000 67147.0000 59639.0000 63607.0000 60315.0000 57987.0000 61195.0000 66395.0000 57979.0000 63571.0000 64563.0000 62927.0000 61283.0000 61995.0000 61187.0000 51767.0000 66283.0000 62911.0000 50895.0000 63555.0000 57975.0000 66279.0000 65331.0000 58807.0000 60443.0000 60439.0000 66379.0000 58791.0000 62891.0000 62079.0000 66367.0000 59611.0000 57151.0000 57147.0000 62067.0000 55215.0000 62063.0000 65467.0000 59607.0000 55207.0000 64491.0000 65447.0000 66347.0000 58763.0000 46955.0000 46995.0000 47015.0000 47019.0000 47043.0000 47063.0000 47191.0000 47247.0000 47263.0000 47267.0000 47299.0000 47311.0000 47347.0000 47355.0000 47411.0000 47419.0000 47455.0000 47515.0000 47531.0000 47539.0000 47575.0000 47647.0000 47759.0000 47831.0000 47883.0000 47951.0000 47959.0000 47971.0000 48003.0000 48039.0000 48071.0000 48115.0000 48219.0000 48255.0000 48363.0000 48379.0000 48391.0000 48411.0000 48447.0000 48455.0000 48471.0000 48551.0000 48575.0000 48627.0000 48667.0000 48791.0000 48875.0000 48883.0000 48903.0000 48931.0000 49099.0000 49111.0000 49155.0000 49199.0000 49299.0000 49303.0000 49311.0000 49351.0000 49359.0000 49507.0000 49523.0000 49643.0000 49671.0000 49683.0000 49767.0000 49771.0000 49863.0000 49967.0000 49991.0000 50039.0000 50047.0000 50059.0000 50063.0000 50123.0000 50139.0000 50215.0000 50311.0000 50323.0000 50331.0000 50343.0000 50399.0000 50415.0000 50435.0000 50539.0000 50595.0000 50675.0000 50695.0000 50735.0000 50751.0000 50795.0000 50815.0000 51007.0000 51047.0000 51087.0000 51191.0000 51199.0000 51243.0000 51271.0000 51275.0000 51291.0000 51323.0000 51379.0000 51527.0000 51615.0000 51691.0000 51799.0000 51815.0000 51819.0000 51843.0000 51891.0000 51919.0000 51975.0000 51999.0000 52027.0000 52115.0000 52219.0000 52299.0000 52355.0000 52391.0000 52491.0000 52671.0000 52675.0000 52827.0000 52835.0000 52923.0000 52931.0000 52939.0000 52963.0000 52967.0000 52995.0000 52999.0000 53027.0000 53043.0000 53107.0000 53123.0000 53131.0000 53147.0000 53187.0000 53191.0000 53195.0000 53251.0000 53331.0000 53363.0000 53407.0000 53423.0000 53515.0000 53535.0000 53539.0000 53571.0000 53583.0000 53595.0000 53599.0000 53703.0000 53863.0000 53883.0000 53935.0000 53963.0000 54119.0000 54251.0000 54267.0000 54415.0000 54483.0000 54499.0000 54519.0000 54547.0000 54599.0000 54727.0000 54755.0000 54827.0000 54895.0000 54931.0000 54935.0000 54971.0000 55011.0000 55015.0000 55035.0000 55039.0000 55083.0000 55143.0000 55283.0000 55315.0000 55399.0000 55411.0000 55443.0000 55487.0000 55543.0000 55575.0000 55591.0000 55623.0000 55651.0000 55663.0000 55703.0000 55823.0000 55919.0000 55927.0000 56031.0000 56047.0000 56071.0000 56075.0000 56103.0000 56119.0000 56135.0000 56307.0000 56375.0000 56467.0000 56535.0000 56595.0000 56599.0000 56603.0000 56731.0000 56759.0000 56779.0000 56927.0000 56947.0000 56991.0000 57063.0000 57183.0000 57207.0000 57395.0000 57459.0000 57487.0000 57511.0000 57535.0000 57719.0000 57787.0000 57847.0000 57891.0000 58003.0000 58075.0000 58091.0000 58095.0000 58099.0000 58111.0000 58143.0000 58179.0000 58331.0000 58339.0000 58379.0000 58415.0000 58471.0000 58523.0000 58527.0000 58539.0000 58607.0000 58647.0000 58655.0000 58679.0000 58819.0000 58847.0000 58875.0000 58903.0000 59035.0000 59151.0000 59155.0000 59167.0000 59191.0000 59423.0000 59435.0000 59459.0000 59667.0000 59731.0000 59747.0000 59755.0000 59791.0000 59815.0000 59923.0000 59927.0000 59935.0000 59947.0000 59983.0000 60063.0000 60099.0000 60107.0000 60115.0000 60167.0000 60187.0000 60231.0000 60475.0000 60495.0000 60563.0000 60623.0000 60643.0000 60651.0000 60671.0000 60675.0000 60843.0000 60863.0000 60875.0000 60903.0000 61015.0000 61039.0000 61107.0000 61407.0000 61411.0000 61427.0000 61483.0000 61507.0000 61543.0000 61567.0000 61587.0000 61607.0000 61615.0000 61627.0000 61659.0000 61675.0000 61799.0000 61847.0000 61895.0000 61899.0000 61967.0000 62139.0000 62211.0000 62259.0000 62295.0000 62331.0000 62383.0000 62419.0000 62431.0000 62447.0000 62487.0000 62527.0000 62535.0000 62559.0000 62591.0000 62599.0000 62663.0000 62675.0000 62747.0000 62755.0000 62951.0000 63071.0000 63195.0000 63227.0000 63251.0000 63403.0000 63427.0000 63503.0000 63815.0000 63855.0000 63887.0000 63895.0000 63911.0000 63927.0000 63995.0000 64019.0000 64059.0000 64123.0000 64163.0000 64223.0000 64235.0000 64295.0000 64587.0000 64607.0000 64683.0000 64763.0000 64803.0000 64811.0000 64819.0000 64835.0000 64903.0000 64931.0000 64939.0000 64951.0000 64999.0000 65051.0000 65099.0000 65143.0000 65163.0000 65167.0000 65271.0000 65535.0000 65551.0000 65579.0000 65639.0000 65647.0000 65707.0000 65751.0000 65767.0000 65819.0000 65823.0000 65879.0000 65883.0000 65915.0000 65927.0000 65935.0000 65947.0000 65975.0000 65983.0000 66003.0000 66075.0000 66079.0000 66111.0000 66127.0000 66155.0000 66167.0000 66179.0000 66191.0000 66215.0000 66239.0000 66243.0000 66255.0000 66419.0000 66423.0000 66439.0000 66479.0000 66523.0000 66543.0000 66551.0000 66555.0000 66559.0000 66627.0000 66659.0000 66703.0000 66707.0000 66739.0000 66767.0000 66955.0000 67087.0000 67091.0000 
         </DataArray>
    </PointData>
</Piece>
</PolyData>
</VTKFile>