<?xml version="1.0"?>
<VTKFile type="RectilinearGrid" version="1.0" byte_order="LittleEndian" header_type="UInt64">
<RectilinearGrid WholeExtent="25 50 0 25 0 15">
<Piece Extent="25 50 0 25 0 15">
<Coordinates>
<DataArray type="Float64" Name="Array X-Axis" format="ascii" RangeMin="15.0" RangeMax="30.0">
15.0 15.6 16.2 16.8 17.4 18.0 18.6 19.2 19.8 20.4 21.0 21.6 22.2 22.8 23.4 24.0 24.6 25.2 25.8 26.4 27.0 27.6 28.2 28.8 29.4 30.0 
</DataArray>
<DataArray type="Float64" Name="Array Y-Axis" format="ascii" RangeMin="0.0" RangeMax="15.0">
0.0 0.6 1.2 1.8 2.4 3.0 3.6 4.2 4.8 5.4 6.0 6.6 7.2 7.8 8.4 9.0 9.6 10.2 10.8 11.4 12.0 12.6 13.2 13.8 14.4 15.0 
</DataArray>
<DataArray type="Float64" Name="Array Z-Axis" format="ascii" RangeMin="0.0" RangeMax="9.0">
0.0 0.6 1.2 1.8 2.4 3.0 3.6 4.2 4.8 5.4 6.0 6.6 7.2 7.8 8.4 9.0 
</DataArray>
</Coordinates>
<PointData>
<DataArray Name="TEMPERATURE" NumberOfComponents="1" type="Float64" format="ascii">
20.0 20.0 20.0 20.0 20.0 20.0 20.1 20.1 20.1 20.1 20.1 20.0 20.0 20.0 20.0 20.0 20.0 20.0 20.0 20.0 20.0 20.0 20.0 20.0 20.0 20.0 20.1 20.1 20.1 20.1 20.1 20.1 20.1 20.1 20.1 20.1 20.1 20.1 20.1 20.1 20.1 20.1 20.1 20.1 20.1 20.1 20.1 20.1 20.1 20.1 20.1 20.0 20.1 20.1 20.2 20.2 20.2 20.2 20.2 20.2 20.2 20.2 20.2 20.2 20.2 20.1 20.1 20.1 20.1 20.1 20.1 20.1 20.1 20.1 20.1 20.1 20.1 20.0 20.2 20.2 20.3 20.3 20.3 20.3 20.3 20.3 20.3 20.3 20.3 20.3 20.2 20.2 20.2 20.2 20.2 20.2 20.2 20.2 20.2 20.2 20.2 20.2 20.1 20.0 20.3 20.3 20.4 20.4 20.4 20.4 20.4 20.4 20.4 20.4 20.4 20.3 20.3 20.3 20.3 20.3 20.3 20.3 20.3 20.3 20.3 20.3 20.2 20.1 20.1 20.0 20.4 20.4 20.5 20.5 20.5 20.5 20.5 20.5 20.5 20.5 20.5 20.4 20.4 20.4 20.4 20.4 20.4 20.4 20.4 20.4 20.4 20.3 20.2 20.1 20.1 20.0 20.5 20.5 20.6 20.6 20.6 20.6 20.6 20.6 20.7 20.7 20.6 20.6 20.5 20.5 20.5 20.5 20.5 20.5 20.5 20.5 20.5 20.3 20.2 20.1 20.1 20.0 20.6 20.6 20.7 20.7 20.7 20.8 20.8 20.8 20.8 20.8 20.7 20.7 20.6 20.6 20.6 20.6 20.6 20.7 20.7 20.6 20.4 20.3 20.2 20.1 20.1 20.0 20.7 20.8 20.8 20.9 20.9 20.9 20.9 20.9 21.0 21.0 20.9 20.8 20.8 20.7 20.7 20.8 20.8 20.8 20.7 20.5 20.4 20.3 20.2 20.2 20.1 20.0 20.8 20.9 21.0 21.1 21.1 21.1 21.1 21.2 21.2 21.2 21.0 20.9 20.9 20.9 20.9 21.0 21.0 20.8 20.7 20.5 20.4 20.3 20.2 20.2 20.1 20.0 21.0 21.0 21.2 21.3 21.3 21.3 21.4 21.4 21.4 21.4 21.2 21.1 21.1 21.1 21.2 21.2 21.0 20.8 20.7 20.5 20.4 20.3 20.3 20.2 20.1 20.0 21.1 21.2 21.4 21.5 21.6 21.6 21.6 21.7 21.7 21.6 21.4 21.3 21.3 21.4 21.4 21.2 21.0 20.8 20.7 20.6 20.5 20.4 20.3 20.2 20.1 20.0 21.3 21.4 21.6 21.8 21.9 21.9 22.0 22.0 22.0 21.8 21.6 21.6 21.7 21.7 21.5 21.3 21.0 20.8 20.7 20.6 20.5 20.4 20.3 20.2 20.1 20.0 21.5 21.6 21.8 22.0 22.2 22.3 22.4 22.4 22.4 22.1 22.0 22.0 22.0 21.9 21.5 21.3 21.1 20.9 20.8 20.6 20.5 20.4 20.3 20.2 20.1 20.1 21.8 21.9 22.1 22.4 22.6 22.9 22.9 22.9 22.7 22.5 22.4 22.4 22.2 21.9 21.6 21.3 21.1 21.0 20.8 20.7 20.5 20.4 20.3 20.2 20.1 20.1 22.2 22.3 22.5 22.8 23.1 23.5 23.6 23.4 23.2 23.0 22.9 22.7 22.3 21.9 21.6 21.4 21.2 21.0 20.9 20.7 20.6 20.4 20.3 20.2 20.1 20.1 22.6 22.7 23.0 23.3 23.7 24.1 24.3 24.2 24.0 23.7 23.4 22.9 22.4 22.0 21.7 21.5 21.3 21.1 20.9 20.7 20.6 20.5 20.4 20.3 20.1 20.1 23.0 23.3 23.7 24.1 24.6 25.1 25.3 25.3 25.0 24.4 23.8 23.0 22.5 22.2 21.9 21.6 21.4 21.2 21.0 20.8 20.7 20.6 20.4 20.3 20.2 20.1 23.5 24.0 24.5 25.2 26.0 26.8 27.0 26.6 26.0 25.1 24.1 23.3 22.8 22.4 22.1 21.8 21.5 21.3 21.1 20.9 20.8 20.6 20.5 20.3 20.2 20.1 24.1 24.8 25.7 28.1 32.3 35.4 33.9 29.8 27.4 25.9 24.6 23.8 23.3 22.8 22.4 22.0 21.7 21.4 21.2 21.0 20.9 20.7 20.5 20.4 20.2 20.1 25.1 26.2 27.6 32.4 38.0 42.8 39.6 32.7 30.1 27.6 25.6 24.5 23.9 23.3 22.7 22.2 21.9 21.5 21.3 21.1 20.9 20.7 20.5 20.4 20.2 20.1 25.7 27.2 29.2 35.6 40.6 20.0 20.0 34.1 31.8 28.3 26.4 25.1 24.3 23.5 22.8 22.3 21.9 21.6 21.3 21.1 20.9 20.7 20.5 20.3 20.2 20.1 25.7 27.2 29.1 34.7 39.2 20.0 20.0 34.7 31.6 27.5 26.2 25.2 24.1 23.3 22.8 22.3 21.9 21.6 21.4 21.2 20.9 20.7 20.5 20.3 20.2 20.2 25.4 26.4 27.6 30.9 34.2 44.6 49.6 36.5 29.7 26.7 25.4 24.6 23.7 23.0 22.6 22.2 21.9 21.6 21.3 21.1 20.9 20.7 20.5 20.3 20.2 20.1 24.5 25.1 25.8 27.8 31.8 39.2 40.8 32.7 27.0 25.4 24.4 23.8 23.2 22.7 22.3 22.0 21.8 21.5 21.2 21.0 20.9 20.7 20.5 20.3 20.2 20.1 22.9 24.2 24.8 26.0 28.3 30.4 29.7 27.1 25.3 24.4 23.7 23.2 22.7 22.3 22.0 21.7 21.5 21.3 21.1 20.9 20.8 20.6 20.5 20.3 20.1 20.1 20.0 20.0 20.0 20.0 20.0 20.0 20.1 20.1 20.1 20.1 20.0 20.0 20.0 20.0 20.0 20.0 20.0 20.0 20.0 20.0 20.0 20.0 20.0 20.0 20.0 20.0 20.1 20.1 20.1 20.1 20.1 20.1 20.1 20.1 20.1 20.1 20.1 20.1 20.1 20.1 20.1 20.1 20.1 20.1 20.1 20.1 20.1 20.1 20.1 20.1 20.1 20.0 20.1 20.1 20.1 20.2 20.2 20.2 20.2 20.2 20.2 20.2 20.2 20.2 20.1 20.1 20.1 20.1 20.1 20.1 20.1 20.1 20.1 20.1 20.1 20.1 20.1 20.0 20.2 20.2 20.2 20.2 20.3 20.3 20.3 20.3 20.3 20.3 20.3 20.2 20.2 20.2 20.2 20.2 20.2 20.2 20.2 20.2 20.2 20.2 20.2 20.2 20.1 20.0 20.3 20.3 20.3 20.3 20.4 20.4 20.3 20.4 20.4 20.4 20.4 20.3 20.3 20.3 20.3 20.3 20.3 20.2 20.3 20.3 20.3 20.3 20.2 20.1 20.1 20.0 20.4 20.4 20.4 20.5 20.5 20.5 20.5 20.5 20.5 20.5 20.5 20.4 20.4 20.4 20.4 20.4 20.3 20.3 20.4 20.4 20.4 20.3 20.2 20.1 20.1 20.0 20.4 20.5 20.5 20.6 20.6 20.6 20.6 20.6 20.7 20.6 20.6 20.5 20.5 20.5 20.5 20.4 20.4 20.5 20.5 20.5 20.4 20.3 20.2 20.1 20.1 20.0 20.5 20.6 20.7 20.7 20.7 20.7 20.7 20.8 20.8 20.8 20.7 20.6 20.6 20.6 20.6 20.6 20.6 20.7 20.7 20.6 20.4 20.3 20.2 20.1 20.1 20.0 20.7 20.7 20.8 20.9 20.9 20.9 20.9 20.9 21.0 20.9 20.8 20.8 20.7 20.7 20.7 20.8 20.8 20.8 20.7 20.5 20.4 20.3 20.2 20.1 20.1 20.0 20.8 20.9 21.0 21.1 21.1 21.1 21.1 21.2 21.2 21.1 21.0 20.9 20.9 20.9 20.9 21.0 21.0 20.8 20.7 20.5 20.4 20.3 20.2 20.1 20.1 20.0 20.9 21.0 21.1 21.2 21.3 21.3 21.4 21.4 21.4 21.3 21.2 21.1 21.1 21.1 21.2 21.2 21.0 20.8 20.6 20.5 20.4 20.3 20.2 20.2 20.1 20.0 21.1 21.2 21.3 21.5 21.6 21.6 21.7 21.7 21.7 21.5 21.4 21.3 21.4 21.4 21.4 21.3 21.0 20.8 20.6 20.5 20.4 20.3 20.3 20.2 20.1 20.0 21.3 21.4 21.6 21.8 21.9 22.0 22.0 22.1 22.0 21.8 21.7 21.7 21.7 21.7 21.5 21.3 21.0 20.8 20.7 20.6 20.5 20.4 20.3 20.2 20.1 20.0 21.5 21.7 21.8 22.1 22.3 22.4 22.5 22.5 22.4 22.2 22.0 22.0 22.0 21.9 21.6 21.3 21.0 20.9 20.7 20.6 20.5 20.4 20.3 20.2 20.1 20.0 21.8 22.0 22.2 22.4 22.7 23.0 23.1 23.0 22.8 22.6 22.5 22.4 22.3 21.9 21.6 21.3 21.1 20.9 20.8 20.6 20.5 20.4 20.3 20.2 20.1 20.1 22.2 22.4 22.6 22.9 23.2 23.6 23.8 23.6 23.3 23.2 23.0 22.8 22.4 22.0 21.6 21.4 21.2 21.0 20.8 20.7 20.5 20.4 20.3 20.2 20.1 20.1 22.6 22.9 23.2 23.6 24.0 24.5 24.7 24.5 24.1 23.8 23.5 23.0 22.5 22.1 21.7 21.5 21.3 21.1 20.9 20.7 20.6 20.5 20.3 20.2 20.1 20.1 23.1 23.5 23.9 24.4 25.1 25.7 26.1 25.9 25.2 24.6 23.9 23.2 22.7 22.2 21.9 21.6 21.4 21.1 21.0 20.8 20.6 20.5 20.4 20.3 20.1 20.1 23.6 24.2 24.8 26.5 27.6 27.9 28.4 27.8 26.5 25.3 24.3 23.5 22.9 22.5 22.1 21.8 21.5 21.3 21.1 20.9 20.7 20.6 20.5 20.3 20.2 20.1 24.3 25.0 26.2 31.9 37.6 38.8 38.4 34.1 28.8 26.2 24.9 24.0 23.4 22.9 22.4 22.0 21.7 21.4 21.2 21.0 20.8 20.7 20.5 20.4 20.2 20.1 25.1 26.4 29.3 38.4 77.9 133.9 141.8 82.4 36.1 29.0 26.1 24.8 24.0 23.4 22.8 22.3 21.9 21.5 21.3 21.1 20.9 20.7 20.5 20.3 20.2 20.1 25.8 27.5 31.0 42.9 124.1 355.7 353.1 118.4 39.5 30.4 27.0 25.5 24.5 23.7 22.9 22.4 22.0 21.6 21.3 21.1 20.9 20.7 20.5 20.3 20.2 20.1 26.3 27.9 30.6 43.5 120.3 400.4 404.4 115.2 36.6 29.0 26.7 25.4 24.3 23.5 22.9 22.4 22.0 21.6 21.3 21.1 20.9 20.7 20.5 20.3 20.2 20.1 26.0 27.2 29.6 39.1 77.0 184.6 197.0 82.1 32.7 27.4 25.7 24.7 23.8 23.1 22.6 22.2 21.9 21.6 21.3 21.1 20.9 20.7 20.5 20.3 20.2 20.1 24.8 25.5 27.2 31.9 40.4 61.0 60.2 36.7 27.9 25.8 24.7 23.9 23.3 22.7 22.3 22.0 21.7 21.5 21.2 21.0 20.8 20.7 20.5 20.3 20.2 20.1 23.0 24.4 25.3 26.7 29.0 35.2 35.1 28.3 25.8 24.7 23.9 23.3 22.8 22.4 22.0 21.7 21.5 21.3 21.1 20.9 20.7 20.6 20.4 20.3 20.1 20.1 20.0 20.0 20.0 20.0 20.0 20.0 20.0 20.0 20.0 20.0 20.0 20.0 20.0 20.0 20.0 20.0 20.0 20.0 20.0 20.0 20.0 20.0 20.0 20.0 20.0 20.0 20.1 20.1 20.1 20.1 20.1 20.1 20.1 20.1 20.1 20.1 20.1 20.1 20.1 20.1 20.1 20.1 20.1 20.0 20.0 20.0 20.0 20.0 20.1 20.1 20.1 20.0 20.1 20.1 20.1 20.1 20.1 20.1 20.1 20.2 20.2 20.2 20.1 20.1 20.1 20.1 20.1 20.1 20.1 20.1 20.1 20.1 20.1 20.1 20.1 20.1 20.1 20.0 20.2 20.2 20.2 20.2 20.2 20.2 20.2 20.2 20.3 20.3 20.2 20.2 20.2 20.2 20.2 20.2 20.2 20.2 20.1 20.2 20.2 20.2 20.2 20.1 20.1 20.0 20.2 20.3 20.3 20.3 20.3 20.3 20.3 20.3 20.4 20.4 20.3 20.3 20.3 20.2 20.2 20.2 20.2 20.2 20.2 20.3 20.3 20.3 20.2 20.1 20.1 20.0 20.3 20.3 20.4 20.4 20.4 20.4 20.4 20.5 20.5 20.5 20.4 20.4 20.3 20.3 20.3 20.3 20.3 20.3 20.4 20.4 20.4 20.3 20.2 20.1 20.0 20.0 20.4 20.4 20.5 20.5 20.6 20.6 20.6 20.6 20.6 20.6 20.5 20.5 20.4 20.4 20.4 20.4 20.4 20.5 20.5 20.5 20.4 20.3 20.2 20.1 20.0 20.0 20.5 20.6 20.6 20.7 20.7 20.7 20.7 20.8 20.8 20.7 20.6 20.6 20.5 20.5 20.5 20.6 20.6 20.6 20.6 20.5 20.4 20.2 20.2 20.1 20.1 20.0 20.6 20.7 20.8 20.9 20.9 20.9 20.9 21.0 21.0 20.9 20.8 20.7 20.7 20.7 20.7 20.7 20.8 20.8 20.7 20.5 20.3 20.2 20.2 20.1 20.1 20.0 20.8 20.8 20.9 21.0 21.1 21.1 21.2 21.2 21.2 21.1 20.9 20.9 20.9 20.9 20.9 21.0 20.9 20.8 20.6 20.5 20.3 20.2 20.2 20.1 20.1 20.0 20.9 21.0 21.1 21.2 21.3 21.4 21.4 21.5 21.4 21.3 21.1 21.1 21.1 21.1 21.2 21.1 21.0 20.8 20.6 20.4 20.3 20.3 20.2 20.1 20.1 20.0 21.1 21.2 21.3 21.5 21.6 21.7 21.8 21.8 21.7 21.5 21.4 21.4 21.4 21.4 21.4 21.2 21.0 20.8 20.6 20.5 20.4 20.3 20.2 20.1 20.1 20.0 21.3 21.4 21.6 21.8 22.0 22.1 22.2 22.2 22.0 21.8 21.8 21.8 21.7 21.7 21.5 21.3 21.0 20.8 20.6 20.5 20.4 20.3 20.2 20.2 20.1 20.0 21.6 21.7 21.9 22.1 22.4 22.6 22.7 22.7 22.5 22.3 22.2 22.2 22.1 21.9 21.6 21.3 21.0 20.8 20.7 20.6 20.4 20.3 20.2 20.2 20.1 20.0 21.9 22.1 22.3 22.6 22.9 23.2 23.4 23.3 23.0 22.8 22.7 22.6 22.3 22.0 21.6 21.3 21.1 20.9 20.7 20.6 20.5 20.4 20.3 20.2 20.1 20.0 22.3 22.6 22.8 23.1 23.6 24.0 24.2 24.0 23.7 23.4 23.2 22.9 22.5 22.1 21.7 21.4 21.2 21.0 20.8 20.6 20.5 20.4 20.3 20.2 20.1 20.1 22.8 23.1 23.4 24.0 24.7 25.6 25.9 25.2 24.5 24.1 23.7 23.2 22.7 22.2 21.8 21.5 21.2 21.0 20.8 20.7 20.5 20.4 20.3 20.2 20.1 20.1 23.3 23.8 24.4 25.7 26.9 27.9 28.3 26.9 25.6 24.9 24.2 23.5 22.9 22.4 22.0 21.6 21.4 21.1 20.9 20.8 20.6 20.5 20.4 20.2 20.1 20.1 23.9 24.8 26.7 31.1 33.6 33.6 33.4 31.1 28.7 26.7 24.8 23.9 23.2 22.7 22.2 21.9 21.6 21.3 21.1 20.9 20.7 20.5 20.4 20.3 20.2 20.1 24.7 26.1 31.9 49.1 62.3 58.4 51.7 43.3 34.2 28.8 25.7 24.5 23.7 23.1 22.6 22.1 21.8 21.5 21.2 21.0 20.8 20.6 20.5 20.3 20.2 20.1 25.5 27.7 37.7 72.1 146.2 203.1 197.5 120.5 47.0 32.3 27.1 25.4 24.4 23.6 22.9 22.4 22.0 21.6 21.3 21.0 20.8 20.6 20.5 20.3 20.2 20.1 26.2 28.8 38.7 81.6 215.2 379.9 376.7 202.9 71.7 37.2 28.2 26.2 24.9 24.0 23.2 22.6 22.1 21.7 21.3 21.0 20.8 20.6 20.5 20.3 20.2 20.1 26.9 29.3 36.2 76.1 212.8 427.8 442.4 231.8 80.3 34.9 27.9 26.1 24.8 23.9 23.1 22.5 22.1 21.7 21.3 21.0 20.8 20.6 20.5 20.3 20.1 20.1 26.5 28.4 34.8 64.9 156.7 322.0 336.9 165.3 53.8 28.9 26.6 25.3 24.3 23.5 22.8 22.3 21.9 21.6 21.3 21.0 20.8 20.6 20.5 20.3 20.1 20.1 25.1 26.3 30.7 44.3 72.6 146.7 146.0 62.1 31.0 26.7 25.4 24.4 23.6 23.0 22.5 22.1 21.7 21.4 21.2 20.9 20.8 20.6 20.4 20.3 20.1 20.1 23.2 24.8 25.9 27.7 30.9 51.4 54.5 33.8 27.1 25.5 24.5 23.8 23.1 22.6 22.1 21.8 21.5 21.3 21.0 20.8 20.7 20.5 20.4 20.3 20.1 20.1 20.0 20.0 20.0 20.0 20.0 20.0 20.0 20.0 20.0 20.0 20.0 20.0 20.0 20.0 20.0 20.0 20.0 20.0 20.0 20.0 20.0 20.0 20.0 20.0 20.0 20.0 20.1 20.1 20.1 20.1 20.1 20.1 20.1 20.1 20.1 20.1 20.1 20.1 20.1 20.1 20.1 20.1 20.1 20.0 20.0 20.0 20.0 20.0 20.0 20.1 20.0 20.0 20.1 20.1 20.1 20.1 20.1 20.1 20.1 20.2 20.2 20.2 20.1 20.1 20.1 20.1 20.1 20.1 20.1 20.1 20.1 20.1 20.1 20.1 20.1 20.1 20.1 20.0 20.2 20.2 20.2 20.2 20.2 20.2 20.2 20.3 20.3 20.3 20.2 20.2 20.2 20.2 20.2 20.2 20.2 20.2 20.1 20.2 20.2 20.2 20.2 20.1 20.1 20.0 20.2 20.3 20.3 20.3 20.3 20.3 20.3 20.4 20.4 20.4 20.3 20.3 20.3 20.2 20.2 20.2 20.2 20.2 20.2 20.3 20.3 20.3 20.2 20.1 20.0 20.0 20.3 20.4 20.4 20.5 20.5 20.4 20.5 20.5 20.5 20.5 20.4 20.4 20.3 20.3 20.3 20.3 20.3 20.3 20.4 20.4 20.4 20.3 20.2 20.1 20.0 20.0 20.4 20.5 20.5 20.6 20.6 20.6 20.6 20.6 20.6 20.6 20.5 20.5 20.5 20.4 20.4 20.4 20.4 20.5 20.5 20.5 20.4 20.3 20.2 20.1 20.0 20.0 20.5 20.6 20.6 20.7 20.8 20.8 20.8 20.8 20.8 20.7 20.7 20.6 20.6 20.6 20.6 20.6 20.6 20.6 20.6 20.5 20.4 20.2 20.2 20.1 20.0 20.0 20.7 20.7 20.8 20.9 20.9 20.9 21.0 21.0 21.0 20.9 20.8 20.8 20.7 20.7 20.7 20.7 20.8 20.7 20.6 20.5 20.3 20.2 20.2 20.1 20.1 20.0 20.8 20.8 21.0 21.1 21.1 21.2 21.2 21.2 21.2 21.1 21.0 20.9 20.9 20.9 20.9 20.9 20.9 20.8 20.6 20.5 20.3 20.3 20.2 20.1 20.1 20.0 20.9 21.0 21.1 21.3 21.4 21.5 21.5 21.5 21.4 21.3 21.2 21.1 21.1 21.2 21.1 21.1 21.0 20.8 20.6 20.5 20.4 20.3 20.2 20.1 20.1 20.0 21.1 21.2 21.4 21.5 21.7 21.8 21.9 21.9 21.8 21.6 21.5 21.5 21.4 21.4 21.4 21.2 21.0 20.8 20.6 20.5 20.4 20.3 20.2 20.1 20.1 20.0 21.4 21.5 21.6 21.8 22.0 22.2 22.3 22.3 22.1 21.9 21.8 21.8 21.8 21.7 21.5 21.3 21.0 20.8 20.6 20.5 20.4 20.3 20.2 20.2 20.1 20.0 21.7 21.8 21.9 22.2 22.4 22.6 22.8 22.8 22.6 22.4 22.3 22.2 22.1 21.9 21.6 21.3 21.1 20.9 20.7 20.6 20.5 20.4 20.3 20.2 20.1 20.0 22.0 22.2 22.4 22.7 23.0 23.3 23.6 23.5 23.2 23.0 22.8 22.6 22.4 22.0 21.7 21.4 21.2 20.9 20.8 20.6 20.5 20.4 20.3 20.2 20.1 20.0 22.4 22.7 23.0 23.3 23.8 24.2 24.5 24.4 23.9 23.7 23.4 23.0 22.6 22.2 21.8 21.5 21.2 21.0 20.8 20.7 20.5 20.4 20.3 20.2 20.1 20.0 22.9 23.3 23.9 24.5 25.6 27.1 27.1 25.9 25.0 24.4 24.0 23.4 22.9 22.4 22.0 21.6 21.3 21.1 20.9 20.7 20.6 20.4 20.3 20.2 20.1 20.1 23.5 24.3 26.2 27.8 28.6 30.7 31.2 28.6 26.3 25.3 24.6 23.8 23.1 22.6 22.1 21.7 21.4 21.2 21.0 20.8 20.6 20.5 20.4 20.2 20.1 20.1 25.1 27.2 34.7 40.1 38.7 39.5 40.5 38.2 33.6 28.2 25.3 24.3 23.5 22.9 22.4 22.0 21.6 21.4 21.1 20.9 20.7 20.6 20.4 20.3 20.1 20.1 28.2 37.3 64.9 96.0 95.3 76.4 66.7 59.4 48.4 35.1 26.8 25.0 24.0 23.3 22.7 22.3 21.9 21.6 21.3 21.0 20.8 20.6 20.4 20.3 20.2 20.1 29.1 41.2 85.4 161.2 214.9 214.0 188.7 130.4 65.5 38.5 28.3 25.9 24.7 23.9 23.1 22.6 22.1 21.7 21.4 21.1 20.8 20.6 20.4 20.3 20.2 20.1 28.1 35.9 74.6 172.5 298.7 377.0 370.2 259.4 115.3 44.4 29.4 26.8 25.4 24.3 23.4 22.8 22.3 21.8 21.4 21.1 20.8 20.6 20.4 20.3 20.2 20.1 28.7 35.8 63.1 151.7 297.8 426.5 449.3 309.1 124.7 42.3 29.1 26.8 25.3 24.3 23.4 22.7 22.2 21.8 21.4 21.1 20.8 20.6 20.5 20.3 20.2 20.1 28.0 33.3 50.3 103.8 203.2 356.9 401.7 224.7 65.3 30.8 27.5 25.9 24.7 23.9 23.1 22.5 22.1 21.7 21.4 21.1 20.9 20.6 20.5 20.3 20.2 20.1 25.7 27.6 34.2 49.4 78.3 188.2 230.5 111.2 34.5 27.6 26.1 24.9 24.0 23.3 22.7 22.2 21.8 21.5 21.2 21.0 20.8 20.6 20.4 20.3 20.1 20.1 23.4 25.2 26.4 28.3 31.8 57.8 69.9 44.9 29.1 26.2 25.0 24.2 23.4 22.8 22.3 21.9 21.6 21.3 21.1 20.9 20.7 20.5 20.4 20.2 20.1 20.1 20.0 20.0 20.0 20.0 20.0 20.0 20.0 20.0 20.0 20.0 20.0 20.0 20.0 20.0 20.0 20.0 20.0 20.0 20.0 20.0 20.0 20.0 20.0 20.0 20.0 20.0 20.1 20.1 20.1 20.1 20.1 20.1 20.1 20.1 20.1 20.1 20.1 20.1 20.1 20.1 20.1 20.1 20.1 20.1 20.0 20.0 20.0 20.0 20.1 20.1 20.0 20.0 20.1 20.1 20.2 20.2 20.2 20.2 20.2 20.2 20.2 20.2 20.2 20.1 20.1 20.1 20.1 20.1 20.1 20.1 20.1 20.1 20.1 20.1 20.1 20.1 20.1 20.0 20.2 20.2 20.2 20.3 20.3 20.2 20.3 20.3 20.3 20.3 20.3 20.2 20.2 20.2 20.2 20.2 20.2 20.2 20.2 20.2 20.2 20.2 20.2 20.1 20.1 20.0 20.3 20.3 20.3 20.4 20.4 20.4 20.4 20.4 20.4 20.4 20.4 20.3 20.3 20.3 20.3 20.3 20.3 20.3 20.3 20.3 20.3 20.3 20.2 20.1 20.1 20.0 20.4 20.4 20.5 20.5 20.5 20.5 20.5 20.5 20.6 20.5 20.5 20.4 20.4 20.4 20.4 20.4 20.4 20.4 20.4 20.4 20.4 20.3 20.2 20.1 20.0 20.0 20.5 20.5 20.6 20.6 20.6 20.6 20.6 20.7 20.7 20.7 20.6 20.6 20.5 20.5 20.5 20.5 20.5 20.5 20.5 20.5 20.4 20.3 20.2 20.1 20.1 20.0 20.6 20.6 20.7 20.8 20.8 20.8 20.8 20.9 20.9 20.8 20.7 20.7 20.7 20.7 20.7 20.6 20.6 20.6 20.6 20.5 20.4 20.3 20.2 20.1 20.1 20.0 20.7 20.8 20.9 21.0 21.0 21.0 21.0 21.1 21.1 21.0 20.9 20.9 20.9 20.8 20.8 20.8 20.8 20.7 20.6 20.5 20.4 20.3 20.2 20.1 20.1 20.0 20.9 20.9 21.0 21.1 21.2 21.2 21.3 21.3 21.3 21.2 21.1 21.1 21.0 21.0 21.0 21.0 20.9 20.8 20.6 20.5 20.4 20.3 20.2 20.1 20.1 20.0 21.0 21.1 21.2 21.4 21.4 21.5 21.6 21.6 21.6 21.5 21.4 21.3 21.2 21.2 21.2 21.1 21.0 20.8 20.7 20.5 20.4 20.3 20.2 20.1 20.1 20.0 21.2 21.3 21.5 21.6 21.7 21.8 21.9 22.0 21.9 21.7 21.6 21.6 21.5 21.5 21.4 21.2 21.0 20.9 20.7 20.6 20.5 20.4 20.3 20.2 20.1 20.0 21.5 21.6 21.7 21.9 22.0 22.2 22.3 22.4 22.3 22.1 22.0 21.9 21.8 21.7 21.5 21.3 21.1 20.9 20.8 20.6 20.5 20.4 20.3 20.2 20.1 20.0 21.8 21.9 22.1 22.2 22.4 22.6 22.8 22.9 22.7 22.5 22.4 22.3 22.1 21.9 21.7 21.4 21.2 21.0 20.8 20.7 20.5 20.4 20.3 20.2 20.1 20.0 22.1 22.3 22.4 22.7 23.0 23.3 23.6 23.6 23.3 23.1 22.9 22.7 22.4 22.1 21.8 21.5 21.3 21.1 20.9 20.7 20.6 20.4 20.3 20.2 20.1 20.0 22.6 23.2 23.6 23.5 23.7 24.1 24.6 24.5 24.1 23.7 23.4 23.1 22.7 22.3 21.9 21.6 21.4 21.2 21.0 20.8 20.6 20.5 20.3 20.2 20.1 20.1 23.2 24.8 25.7 25.3 26.2 27.6 27.7 26.6 25.4 24.5 24.0 23.5 23.0 22.5 22.1 21.8 21.5 21.2 21.0 20.8 20.7 20.5 20.4 20.2 20.1 20.1 24.0 27.1 30.6 29.9 27.9 30.4 32.7 30.2 27.0 25.5 24.7 24.0 23.3 22.7 22.3 21.9 21.6 21.3 21.1 20.9 20.7 20.6 20.4 20.3 20.1 20.1 26.5 34.3 45.3 45.3 34.9 36.0 43.1 43.9 37.5 28.2 25.5 24.6 23.8 23.1 22.5 22.1 21.8 21.5 21.3 21.0 20.8 20.6 20.5 20.3 20.2 20.1 35.9 68.2 114.1 134.8 93.0 60.5 69.0 72.4 63.4 40.0 27.3 25.3 24.3 23.5 22.9 22.5 22.1 21.7 21.4 21.2 20.9 20.7 20.5 20.3 20.2 20.1 40.3 86.3 170.8 241.8 193.5 140.4 157.2 130.9 81.5 44.7 29.0 26.2 25.0 24.1 23.3 22.7 22.3 21.9 21.5 21.2 20.9 20.7 20.5 20.3 20.2 20.1 34.5 62.4 144.7 255.7 248.0 246.2 302.7 231.4 109.3 45.0 29.7 27.1 25.6 24.5 23.6 22.9 22.4 21.9 21.5 21.2 20.9 20.7 20.5 20.3 20.2 20.1 32.0 53.2 116.6 223.5 241.6 276.9 355.0 249.2 98.4 42.1 29.4 27.1 25.6 24.4 23.6 22.9 22.4 21.9 21.5 21.2 20.9 20.7 20.5 20.3 20.2 20.1 30.3 48.0 81.3 131.7 154.3 244.3 335.8 195.7 49.2 31.4 27.6 26.2 24.9 24.0 23.3 22.7 22.3 21.8 21.5 21.2 21.0 20.7 20.5 20.3 20.2 20.1 26.5 32.2 38.6 43.5 56.2 142.2 212.2 122.5 34.2 27.8 26.1 25.1 24.1 23.4 22.9 22.4 22.0 21.7 21.4 21.1 20.9 20.7 20.5 20.3 20.2 20.1 23.5 25.4 26.8 28.8 31.5 44.8 58.3 45.8 29.4 26.4 25.2 24.4 23.6 23.0 22.5 22.1 21.8 21.5 21.2 21.0 20.8 20.6 20.4 20.3 20.1 20.1 20.0 20.0 20.0 20.0 20.0 20.0 20.0 20.0 20.1 20.1 20.0 20.0 20.0 20.0 20.0 20.0 20.0 20.0 20.0 20.0 20.0 20.0 20.0 20.0 20.0 20.0 20.1 20.1 20.1 20.1 20.1 20.1 20.1 20.1 20.1 20.1 20.1 20.1 20.1 20.1 20.1 20.1 20.1 20.1 20.1 20.1 20.1 20.1 20.1 20.1 20.1 20.0 20.1 20.2 20.2 20.2 20.2 20.2 20.2 20.2 20.2 20.2 20.2 20.2 20.2 20.2 20.1 20.1 20.1 20.1 20.1 20.1 20.1 20.1 20.2 20.1 20.1 20.0 20.2 20.2 20.3 20.3 20.3 20.3 20.3 20.3 20.3 20.3 20.3 20.3 20.2 20.2 20.2 20.2 20.2 20.2 20.2 20.2 20.2 20.2 20.2 20.2 20.1 20.0 20.3 20.3 20.4 20.4 20.4 20.4 20.4 20.4 20.5 20.4 20.4 20.4 20.3 20.3 20.3 20.3 20.3 20.3 20.3 20.3 20.3 20.3 20.2 20.1 20.1 20.0 20.4 20.5 20.5 20.5 20.5 20.5 20.5 20.6 20.6 20.6 20.5 20.5 20.5 20.5 20.5 20.5 20.5 20.4 20.4 20.4 20.4 20.3 20.2 20.1 20.1 20.0 20.5 20.6 20.6 20.7 20.7 20.7 20.7 20.7 20.8 20.7 20.7 20.6 20.6 20.6 20.6 20.6 20.6 20.6 20.5 20.5 20.4 20.3 20.2 20.1 20.1 20.0 20.6 20.7 20.8 20.8 20.8 20.8 20.9 20.9 21.0 20.9 20.8 20.8 20.8 20.8 20.8 20.7 20.7 20.7 20.6 20.5 20.4 20.3 20.2 20.1 20.1 20.0 20.8 20.8 20.9 21.0 21.0 21.0 21.1 21.2 21.2 21.1 21.0 21.0 21.0 21.0 20.9 20.9 20.8 20.8 20.7 20.6 20.5 20.4 20.2 20.2 20.1 20.0 20.9 21.0 21.1 21.2 21.2 21.3 21.3 21.4 21.4 21.4 21.3 21.2 21.2 21.1 21.1 21.0 20.9 20.8 20.7 20.6 20.5 20.4 20.3 20.2 20.1 20.0 21.1 21.2 21.3 21.4 21.4 21.5 21.6 21.7 21.7 21.6 21.5 21.5 21.4 21.3 21.2 21.1 21.0 20.9 20.8 20.7 20.5 20.4 20.3 20.2 20.1 20.0 21.3 21.4 21.5 21.7 21.7 21.8 22.0 22.1 22.0 21.9 21.8 21.7 21.6 21.5 21.4 21.3 21.1 21.0 20.8 20.7 20.6 20.4 20.3 20.2 20.1 20.0 21.6 21.7 21.8 21.9 22.1 22.2 22.4 22.5 22.4 22.3 22.1 22.0 21.9 21.7 21.6 21.4 21.2 21.1 20.9 20.8 20.6 20.5 20.3 20.2 20.1 20.1 21.9 22.0 22.2 22.3 22.4 22.6 22.9 23.0 22.8 22.6 22.5 22.3 22.1 22.0 21.7 21.5 21.3 21.2 21.0 20.8 20.6 20.5 20.3 20.2 20.1 20.1 22.2 22.4 22.6 22.7 22.9 23.2 23.6 23.6 23.4 23.1 22.9 22.7 22.4 22.2 21.9 21.7 21.5 21.2 21.0 20.8 20.7 20.5 20.4 20.2 20.1 20.1 22.7 23.8 24.2 23.6 23.6 23.9 24.4 24.5 24.1 23.8 23.4 23.1 22.7 22.4 22.1 21.8 21.6 21.3 21.1 20.9 20.7 20.5 20.4 20.2 20.1 20.1 25.9 29.2 29.3 27.2 26.3 26.4 26.9 26.5 25.4 24.6 24.0 23.5 23.1 22.6 22.3 22.0 21.7 21.4 21.2 20.9 20.7 20.6 20.4 20.3 20.1 20.1 29.9 37.8 37.9 30.8 27.2 29.6 31.5 29.8 27.0 25.4 24.7 24.0 23.4 22.9 22.4 22.1 21.8 21.5 21.2 21.0 20.8 20.6 20.5 20.3 20.2 20.1 34.8 47.5 52.3 39.6 30.6 36.3 41.4 43.6 37.7 27.6 25.5 24.6 23.9 23.2 22.7 22.3 22.0 21.6 21.4 21.1 20.9 20.7 20.5 20.3 20.2 20.1 54.3 99.7 138.9 111.6 63.9 62.0 68.9 75.0 68.0 39.6 27.2 25.3 24.4 23.7 23.1 22.6 22.2 21.9 21.5 21.3 21.0 20.8 20.6 20.4 20.2 20.1 73.7 148.9 229.6 200.4 116.2 120.6 139.1 113.9 79.7 45.1 28.8 26.3 25.2 24.3 23.5 22.9 22.4 22.0 21.6 21.3 21.0 20.7 20.5 20.3 20.2 20.1 65.4 123.0 206.6 208.1 139.0 176.2 221.8 146.9 68.3 40.0 29.4 27.1 25.7 24.6 23.7 23.0 22.4 22.0 21.6 21.3 21.0 20.7 20.5 20.3 20.2 20.1 52.1 96.9 164.6 177.5 124.8 165.2 226.5 142.8 53.6 35.8 29.0 27.1 25.6 24.4 23.7 23.0 22.5 22.0 21.6 21.3 21.0 20.7 20.5 20.3 20.2 20.1 40.9 72.2 105.2 104.6 83.7 133.5 201.9 127.4 38.6 30.3 27.5 26.2 24.9 24.0 23.4 22.8 22.4 21.9 21.6 21.3 21.0 20.8 20.5 20.3 20.2 20.1 28.3 36.2 40.1 37.9 44.4 84.4 126.8 86.0 32.9 28.0 26.1 25.1 24.2 23.5 23.0 22.5 22.1 21.8 21.5 21.2 21.0 20.8 20.5 20.4 20.2 20.1 24.0 26.1 27.4 28.9 30.7 34.5 39.5 35.7 28.7 26.7 25.3 24.5 23.7 23.2 22.7 22.3 21.9 21.6 21.4 21.1 20.9 20.7 20.5 20.3 20.2 20.1 20.0 20.0 20.0 20.0 20.0 20.0 20.0 20.1 20.1 20.1 20.1 20.0 20.0 20.0 20.0 20.0 20.0 20.0 20.0 20.0 20.0 20.0 20.0 20.0 20.1 20.1 20.1 20.1 20.1 20.1 20.1 20.1 20.1 20.1 20.1 20.1 20.1 20.1 20.1 20.1 20.1 20.1 20.1 20.1 20.1 20.1 20.1 20.1 20.1 20.1 20.1 20.1 20.2 20.2 20.2 20.2 20.2 20.2 20.2 20.2 20.2 20.2 20.2 20.2 20.2 20.2 20.2 20.2 20.2 20.2 20.2 20.2 20.2 20.2 20.2 20.2 20.1 20.0 20.2 20.3 20.3 20.3 20.3 20.3 20.3 20.3 20.3 20.3 20.3 20.3 20.3 20.3 20.3 20.3 20.3 20.3 20.3 20.3 20.3 20.3 20.3 20.2 20.1 20.0 20.3 20.4 20.4 20.4 20.4 20.4 20.4 20.4 20.5 20.5 20.4 20.4 20.4 20.4 20.4 20.4 20.4 20.4 20.4 20.4 20.4 20.4 20.3 20.2 20.1 20.0 20.4 20.5 20.5 20.5 20.5 20.5 20.5 20.6 20.6 20.6 20.6 20.5 20.5 20.5 20.5 20.5 20.5 20.5 20.5 20.5 20.5 20.4 20.3 20.2 20.1 20.0 20.5 20.6 20.7 20.7 20.7 20.7 20.7 20.8 20.8 20.8 20.7 20.7 20.7 20.7 20.7 20.7 20.7 20.6 20.6 20.6 20.5 20.4 20.3 20.2 20.1 20.0 20.7 20.7 20.8 20.8 20.9 20.8 20.9 20.9 21.0 21.0 20.9 20.9 20.9 20.9 20.9 20.8 20.8 20.8 20.7 20.6 20.5 20.4 20.3 20.2 20.1 20.0 20.8 20.9 20.9 21.0 21.0 21.0 21.1 21.2 21.2 21.2 21.2 21.2 21.1 21.1 21.1 21.0 20.9 20.9 20.8 20.7 20.6 20.4 20.3 20.2 20.1 20.0 21.0 21.0 21.1 21.2 21.2 21.3 21.4 21.4 21.5 21.5 21.4 21.4 21.3 21.3 21.2 21.1 21.0 20.9 20.8 20.7 20.6 20.5 20.3 20.2 20.1 20.0 21.2 21.2 21.3 21.4 21.5 21.5 21.6 21.8 21.8 21.8 21.7 21.6 21.6 21.5 21.4 21.3 21.1 21.0 20.9 20.8 20.6 20.5 20.3 20.2 20.1 20.0 21.4 21.5 21.6 21.7 21.8 21.9 22.0 22.1 22.1 22.1 22.0 21.9 21.8 21.6 21.5 21.4 21.3 21.1 21.0 20.8 20.7 20.5 20.3 20.2 20.1 20.1 21.7 21.8 21.9 22.0 22.1 22.3 22.4 22.6 22.5 22.4 22.3 22.1 22.0 21.8 21.7 21.5 21.4 21.2 21.1 20.9 20.7 20.5 20.4 20.2 20.1 20.1 21.9 22.1 22.2 22.3 22.5 22.7 23.0 23.1 22.9 22.8 22.6 22.4 22.2 22.0 21.8 21.7 21.5 21.3 21.1 20.9 20.7 20.5 20.4 20.2 20.1 20.1 22.3 22.5 22.7 22.8 22.9 23.2 23.6 23.7 23.5 23.2 23.0 22.7 22.5 22.3 22.0 21.8 21.6 21.4 21.2 21.0 20.7 20.5 20.4 20.2 20.1 20.1 22.7 23.7 24.1 23.6 23.5 23.8 24.3 24.4 24.2 23.8 23.4 23.1 22.8 22.5 22.2 22.0 21.7 21.5 21.2 21.0 20.8 20.6 20.4 20.3 20.1 20.1 27.7 33.5 31.9 27.4 26.2 25.4 25.8 25.8 25.0 24.4 24.0 23.5 23.1 22.7 22.4 22.1 21.8 21.6 21.3 21.0 20.8 20.6 20.5 20.3 20.1 20.1 38.2 49.5 40.8 29.1 29.0 29.5 29.3 28.6 26.6 25.2 24.6 24.0 23.5 23.0 22.6 22.3 22.0 21.7 21.4 21.1 20.9 20.7 20.5 20.3 20.2 20.1 51.7 60.4 47.9 32.1 35.1 39.7 38.4 41.0 36.2 27.1 25.4 24.5 23.9 23.4 22.9 22.5 22.1 21.8 21.5 21.2 21.0 20.8 20.5 20.4 20.2 20.1 89.5 121.7 110.8 66.9 66.1 82.7 73.6 74.9 67.3 38.2 27.0 25.2 24.5 23.8 23.2 22.7 22.3 21.9 21.6 21.3 21.0 20.8 20.6 20.4 20.2 20.1 130.3 196.4 184.0 114.4 124.7 161.3 137.0 103.1 75.1 43.0 28.7 26.2 25.2 24.4 23.6 22.9 22.4 22.0 21.6 21.3 21.0 20.8 20.5 20.3 20.2 20.1 115.0 178.0 170.1 116.0 142.9 186.6 153.9 93.2 51.5 36.3 29.2 26.9 25.7 24.7 23.8 23.1 22.5 22.0 21.6 21.3 21.0 20.7 20.5 20.3 20.2 20.1 90.2 141.3 136.3 88.6 104.5 139.3 129.2 87.6 44.8 33.5 28.6 26.8 25.5 24.5 23.7 23.0 22.5 22.0 21.6 21.3 21.0 20.8 20.5 20.3 20.2 20.1 68.1 96.5 90.2 58.0 60.3 81.5 105.8 89.7 44.2 31.4 27.2 25.9 24.9 24.1 23.4 22.9 22.4 22.0 21.6 21.3 21.0 20.8 20.6 20.3 20.2 20.1 38.8 43.6 40.4 34.6 35.1 43.8 63.2 59.5 38.3 30.4 26.1 25.0 24.2 23.6 23.1 22.7 22.3 21.9 21.6 21.3 21.0 20.8 20.6 20.4 20.2 20.1 27.7 30.6 29.8 28.7 29.5 31.8 33.5 32.5 31.1 28.3 25.4 24.5 23.9 23.3 22.9 22.4 22.1 21.7 21.4 21.2 20.9 20.7 20.5 20.3 20.2 20.1 20.0 20.0 20.0 20.0 20.0 20.0 20.0 20.0 20.1 20.1 20.1 20.1 20.0 20.0 20.0 20.0 20.0 20.0 20.0 20.0 20.0 20.0 20.0 20.1 20.1 20.1 20.1 20.1 20.1 20.1 20.1 20.1 20.1 20.1 20.1 20.1 20.1 20.1 20.1 20.1 20.1 20.1 20.1 20.1 20.1 20.1 20.1 20.1 20.1 20.1 20.1 20.1 20.2 20.2 20.2 20.2 20.2 20.2 20.2 20.2 20.2 20.2 20.2 20.2 20.2 20.2 20.2 20.2 20.2 20.2 20.2 20.2 20.2 20.2 20.2 20.2 20.1 20.1 20.2 20.3 20.3 20.3 20.3 20.3 20.3 20.3 20.3 20.3 20.3 20.3 20.3 20.3 20.3 20.3 20.3 20.3 20.3 20.3 20.3 20.3 20.3 20.2 20.1 20.0 20.3 20.4 20.4 20.4 20.4 20.4 20.4 20.4 20.5 20.5 20.4 20.4 20.4 20.4 20.5 20.5 20.5 20.5 20.5 20.5 20.5 20.4 20.3 20.2 20.1 20.0 20.4 20.5 20.5 20.5 20.5 20.5 20.5 20.6 20.6 20.6 20.6 20.6 20.6 20.6 20.6 20.6 20.6 20.6 20.6 20.6 20.5 20.5 20.3 20.2 20.1 20.0 20.5 20.6 20.7 20.7 20.7 20.7 20.7 20.8 20.8 20.8 20.8 20.8 20.9 20.8 20.8 20.8 20.8 20.8 20.7 20.7 20.6 20.5 20.3 20.2 20.1 20.0 20.7 20.7 20.8 20.8 20.9 20.9 20.9 21.0 21.0 21.0 21.0 21.1 21.1 21.0 21.0 21.0 21.0 20.9 20.8 20.7 20.6 20.5 20.3 20.2 20.1 20.0 20.8 20.9 20.9 21.0 21.0 21.1 21.1 21.2 21.3 21.3 21.3 21.3 21.3 21.3 21.2 21.2 21.1 21.0 20.9 20.8 20.6 20.5 20.3 20.2 20.1 20.0 21.1 21.1 21.1 21.2 21.3 21.3 21.4 21.5 21.6 21.6 21.6 21.6 21.5 21.5 21.4 21.3 21.2 21.1 21.0 20.8 20.7 20.5 20.3 20.2 20.1 20.1 21.3 21.4 21.4 21.5 21.6 21.6 21.7 21.8 21.9 22.0 21.9 21.8 21.7 21.6 21.6 21.4 21.3 21.2 21.1 20.9 20.7 20.5 20.4 20.2 20.1 20.1 21.6 21.6 21.7 21.8 21.9 22.0 22.1 22.2 22.3 22.3 22.2 22.1 21.9 21.8 21.7 21.6 21.4 21.3 21.1 21.0 20.8 20.6 20.4 20.2 20.1 20.1 21.8 21.9 22.0 22.1 22.2 22.4 22.5 22.7 22.7 22.6 22.5 22.3 22.2 22.0 21.9 21.7 21.5 21.4 21.2 21.0 20.8 20.6 20.4 20.2 20.1 20.1 22.1 22.2 22.3 22.5 22.6 22.8 23.0 23.1 23.1 23.0 22.8 22.6 22.4 22.2 22.0 21.8 21.7 21.5 21.3 21.0 20.8 20.6 20.4 20.2 20.1 20.1 22.4 22.6 22.8 22.8 23.0 23.3 23.6 23.7 23.6 23.4 23.1 22.9 22.6 22.4 22.2 22.0 21.8 21.6 21.3 21.1 20.8 20.6 20.4 20.3 20.1 20.1 22.9 23.8 24.0 23.5 23.4 23.7 24.2 24.4 24.2 23.9 23.5 23.2 22.9 22.6 22.4 22.1 21.9 21.7 21.4 21.1 20.8 20.6 20.4 20.3 20.1 20.1 26.6 34.2 33.3 26.8 25.7 25.2 25.2 25.4 24.9 24.5 24.0 23.6 23.3 22.9 22.6 22.3 22.0 21.7 21.4 21.1 20.8 20.6 20.5 20.3 20.1 20.1 41.8 49.8 39.0 28.9 29.3 28.0 27.7 27.9 26.7 25.3 24.6 24.1 23.6 23.2 22.8 22.5 22.2 21.9 21.5 21.2 20.9 20.7 20.5 20.3 20.2 20.1 64.0 65.5 42.0 32.1 36.2 34.8 34.6 37.6 34.4 27.5 25.6 24.6 24.0 23.5 23.1 22.7 22.3 21.9 21.6 21.2 21.0 20.8 20.6 20.4 20.2 20.1 106.2 119.4 73.9 54.2 67.0 69.7 67.7 71.2 65.4 39.8 28.1 25.3 24.6 24.0 23.4 22.9 22.4 22.0 21.6 21.3 21.1 20.8 20.6 20.4 20.2 20.1 153.4 182.9 123.6 109.5 140.3 144.0 127.1 98.0 74.7 45.6 31.0 26.4 25.3 24.5 23.8 23.1 22.5 22.1 21.6 21.3 21.0 20.8 20.6 20.3 20.2 20.1 137.5 175.5 133.4 131.0 163.3 155.8 129.5 84.4 54.2 40.0 31.5 27.1 25.8 24.8 24.0 23.3 22.6 22.1 21.7 21.3 21.0 20.8 20.5 20.3 20.2 20.1 112.2 144.7 110.4 96.4 112.1 100.9 98.7 82.8 57.2 40.6 29.8 26.8 25.6 24.7 23.8 23.2 22.6 22.1 21.7 21.3 21.0 20.8 20.5 20.3 20.2 20.1 87.6 101.9 77.3 60.2 63.4 60.5 77.7 81.6 59.4 39.2 27.7 25.9 25.0 24.3 23.6 23.0 22.5 22.1 21.7 21.3 21.0 20.8 20.5 20.3 20.2 20.1 48.0 52.7 45.2 37.0 35.9 38.3 48.4 54.4 47.4 34.9 26.5 25.2 24.5 23.9 23.3 22.8 22.4 22.0 21.6 21.3 21.0 20.8 20.5 20.3 20.2 20.1 30.9 34.7 32.5 29.1 29.2 31.5 33.8 35.5 34.8 29.8 25.6 24.7 24.1 23.6 23.1 22.6 22.2 21.9 21.5 21.2 20.9 20.7 20.5 20.3 20.2 20.1 20.0 20.0 20.0 20.0 20.0 20.0 20.1 20.1 20.1 20.1 20.1 20.1 20.0 20.0 20.0 20.0 20.0 20.0 20.0 20.0 20.0 20.1 20.1 20.1 20.1 20.1 20.1 20.1 20.1 20.1 20.1 20.1 20.1 20.1 20.1 20.1 20.1 20.1 20.1 20.1 20.1 20.1 20.1 20.1 20.1 20.1 20.1 20.1 20.1 20.2 20.1 20.1 20.2 20.2 20.2 20.2 20.2 20.2 20.2 20.2 20.2 20.2 20.2 20.2 20.2 20.2 20.2 20.2 20.2 20.2 20.2 20.2 20.2 20.2 20.3 20.2 20.1 20.1 20.2 20.3 20.3 20.3 20.3 20.3 20.3 20.4 20.4 20.4 20.4 20.4 20.4 20.3 20.3 20.3 20.4 20.4 20.4 20.4 20.4 20.4 20.4 20.3 20.1 20.1 20.4 20.4 20.4 20.4 20.4 20.4 20.5 20.5 20.5 20.5 20.5 20.6 20.6 20.5 20.5 20.6 20.6 20.6 20.5 20.5 20.5 20.5 20.4 20.2 20.1 20.0 20.5 20.5 20.5 20.6 20.6 20.6 20.6 20.7 20.7 20.7 20.7 20.7 20.8 20.8 20.8 20.8 20.8 20.7 20.7 20.7 20.6 20.5 20.4 20.2 20.1 20.0 20.6 20.6 20.7 20.7 20.7 20.7 20.8 20.9 20.9 20.9 20.9 21.0 21.0 21.0 21.0 21.0 20.9 20.9 20.9 20.8 20.7 20.6 20.4 20.2 20.1 20.0 20.7 20.7 20.8 20.9 20.9 20.9 21.0 21.1 21.1 21.2 21.2 21.3 21.3 21.2 21.2 21.2 21.1 21.0 21.0 20.9 20.7 20.6 20.4 20.2 20.1 20.0 20.9 20.9 21.0 21.0 21.1 21.2 21.3 21.4 21.4 21.5 21.5 21.5 21.5 21.4 21.4 21.3 21.2 21.2 21.1 20.9 20.8 20.6 20.4 20.2 20.1 20.1 21.1 21.1 21.2 21.3 21.4 21.6 21.7 21.8 21.8 21.8 21.8 21.8 21.7 21.6 21.6 21.5 21.4 21.3 21.1 21.0 20.8 20.6 20.4 20.2 20.1 20.1 21.3 21.4 21.5 21.6 21.7 21.9 22.1 22.1 22.2 22.2 22.1 22.0 21.9 21.8 21.7 21.6 21.5 21.4 21.2 21.1 20.9 20.6 20.4 20.2 20.1 20.1 21.6 21.7 21.8 21.9 22.1 22.3 22.4 22.5 22.5 22.5 22.4 22.3 22.1 22.0 21.9 21.8 21.6 21.5 21.3 21.1 20.9 20.7 20.4 20.2 20.1 20.1 21.9 22.0 22.1 22.3 22.4 22.6 22.8 22.9 22.9 22.8 22.7 22.5 22.4 22.2 22.1 21.9 21.7 21.6 21.4 21.2 20.9 20.6 20.4 20.2 20.1 20.1 22.1 22.3 22.4 22.6 22.8 23.0 23.2 23.3 23.3 23.2 23.0 22.8 22.6 22.4 22.2 22.0 21.9 21.7 21.4 21.2 20.9 20.6 20.4 20.2 20.1 20.1 22.4 22.7 22.9 2