<?xml version="1.0"?>
<VTKFile type="PolyData" version="1.0" byte_order="LittleEndian" header_type="UInt64">
<PolyData>
<Piece NumberOfPoints="30" NumberOfVerts="0" NumberOfLines="0" NumberOfPolys="0">
    <Points>
        <DataArray type="Float32" NumberOfComponents="3" format="ascii">
        12.7980 17.1451 6.2826 13.3258 15.9962 4.3633 10.7606 16.7588 6.7379 12.1022 16.0506 7.0633 13.6079 15.3781 3.6292 12.6024 15.3194 4.3866 12.1782 15.6018 5.1441 13.4260 15.7309 4.6795 12.8032 15.7499 5.0499 10.8056 16.6110 7.1365 14.7516 15.5395 8.3940 11.8476 15.5179 6.0426 11.4097 16.3400 7.4261 14.4359 15.3033 8.3940 8.8214 15.1420 6.6646 12.0540 15.3361 6.6326 12.5146 15.3135 5.8512 12.0481 15.8505 7.0117 12.4611 19.5005 8.0771 12.3422 15.8561 6.4999 14.1266 17.4966 6.7600 14.8779 15.1751 8.3940 14.3044 17.1983 6.3676 9.8901 15.2383 7.2281 14.2722 16.9833 6.8245 14.1443 17.0252 6.8180 13.3522 17.9189 7.6898 14.8378 15.1723 8.3940 13.5701 17.4360 7.4782 13.2447 17.4743 7.6963 
        </DataArray>
    </Points>
    <PointData>
        <DataArray type="Float32" Name="tag" format="ascii">
            480803.0000 475611.0000 469711.0000 490367.0000 472483.0000 469715.0000 473143.0000 482547.0000 481243.0000 477823.0000 64607.0000 486263.0000 488383.0000 54415.0000 469455.0000 495715.0000 490383.0000 492283.0000 466619.0000 493483.0000 558007.0000 90303.0000 547515.0000 485979.0000 534471.0000 543887.0000 567411.0000 90283.0000 544379.0000 566055.0000 
         </DataArray>
    </PointData>
</Piece>
</PolyData>
</VTKFile>