<?xml version="1.0"?>
<VTKFile type="PolyData" version="1.0" byte_order="LittleEndian" header_type="UInt64">
<PolyData>
<Piece NumberOfPoints="4299" NumberOfVerts="0" NumberOfLines="0" NumberOfPolys="0">
    <Points>
        <DataArray type="Float32" NumberOfComponents="3" format="ascii">
        16.6972 9.7740 2.1043 15.8906 9.4226 6.4879 15.7882 9.2980 3.8000 15.2943 10.1327 4.3697 16.1058 9.7718 4.2803 16.2638 11.1069 0.9713 16.8828 3.0558 5.7931 15.6960 6.9109 1.5222 19.9094 6.5564 3.1343 16.7579 9.7023 3.4130 17.1104 10.0000 2.2343 19.4044 10.1693 8.3940 19.5709 10.5644 8.3940 16.9627 9.8087 2.6349 17.5538 9.8418 3.1300 19.5888 14.8557 8.3940 18.1464 9.3754 8.3940 16.2825 5.0765 5.1852 20.1208 13.1805 8.3940 17.7412 8.8570 5.9009 17.9127 10.9647 3.9008 18.4426 9.3162 2.6039 18.0924 9.1090 8.3940 18.7487 8.8479 3.5540 20.2315 12.5912 8.3940 19.9130 14.4682 8.3940 20.3060 12.4327 8.3940 20.2212 13.6122 8.3940 20.2352 13.5822 8.3940 20.0127 11.5958 8.3940 19.2120 10.0698 8.3940 19.7066 4.2859 4.6737 18.5924 10.9500 5.6216 15.3147 9.2722 2.4956 18.7361 9.7568 8.3940 16.7584 9.1492 8.3940 17.0149 9.0526 8.3940 18.0016 11.3986 4.8729 15.1520 9.5459 8.3940 19.7437 14.5477 8.3940 17.4066 7.4036 5.8072 17.8795 9.0756 8.3940 15.2911 9.2727 8.3940 15.1469 9.2628 8.3940 19.7451 10.6720 8.3940 16.4021 8.9472 8.3940 19.1097 9.9092 8.3940 17.9544 9.2390 8.3940 19.0749 10.3368 8.3940 20.2856 12.4161 8.3940 18.1387 9.2894 8.3940 15.6925 9.4126 8.3940 19.6731 11.1304 8.3940 16.3857 11.0731 0.8396 19.9015 13.3044 8.3940 16.0152 9.0112 8.3940 16.5644 9.0199 8.3940 19.5258 10.5941 8.3940 19.5121 10.6557 8.3940 16.1972 10.0000 2.9354 15.1144 7.6524 3.9922 19.8046 14.0475 8.3940 20.1195 13.0932 8.3940 15.3606 9.6295 8.3940 17.7248 9.3127 8.3940 19.6615 11.0332 8.3940 19.3811 10.5235 8.3940 16.8099 13.3653 0.6454 15.2887 8.3598 4.1216 16.5514 4.0523 2.8192 19.1609 10.1176 8.3940 20.1334 12.0367 8.3940 20.0986 12.9635 8.3940 15.8739 12.3356 1.7651 18.8418 9.7950 8.3940 16.1661 13.1348 1.8615 16.9715 9.4231 8.3940 17.4344 9.1257 8.3940 19.8052 12.3968 8.3940 19.5266 14.0995 8.3940 19.7451 13.5844 8.3940 19.8046 12.3510 8.3940 15.1362 9.7105 8.3940 18.9358 14.7206 8.3940 19.6554 11.5105 8.3940 19.5292 14.4939 8.3940 18.1730 9.7394 8.3940 15.5391 9.4643 2.2880 19.2721 10.8444 8.3940 19.6998 11.2300 8.3940 16.4658 9.2563 8.3940 19.7842 12.2092 8.3940 19.4226 14.2725 8.3940 20.0077 12.6528 8.3940 20.0491 12.1660 8.3940 17.8093 9.3802 8.3940 17.7111 9.3263 8.3940 17.9313 9.7070 8.3940 19.6275 11.6648 8.3940 19.3660 10.6606 8.3940 19.7597 12.2303 8.3940 15.4766 9.3494 8.3940 19.3664 10.5892 8.3940 18.7380 14.6980 8.3940 19.5168 13.6338 8.3940 16.0601 9.2687 8.3940 19.1709 14.6509 8.3940 19.0016 14.6868 8.3940 19.7297 12.5196 8.3940 19.0400 10.6360 8.3940 19.9647 11.9130 8.3940 16.8118 9.3589 8.3940 19.8106 11.4012 8.3940 19.2256 14.7138 8.3940 19.6311 12.1953 8.3940 19.7517 13.6902 8.3940 19.7621 12.2976 8.3940 16.8949 9.2089 8.3940 19.7364 13.8467 8.3940 19.5852 13.7107 8.3940 19.4193 11.0423 8.3940 15.8585 9.3634 8.3940 19.1970 14.3373 8.3940 19.7801 12.2217 8.3940 18.4007 9.9151 8.3940 18.4605 9.9925 8.3940 19.4838 10.9106 8.3940 16.5358 4.8031 3.4103 16.7142 9.4951 8.3940 16.7163 9.7561 4.5965 19.5852 13.9456 8.3940 15.5794 9.7425 8.3940 19.2978 14.5686 8.3940 19.2704 10.8141 8.3940 19.2553 14.2857 8.3940 19.0553 10.7083 8.3940 16.9356 9.5588 2.9093 16.3908 9.6241 8.3940 19.6003 13.1367 8.3940 19.5648 12.6469 8.3940 18.2031 10.0255 8.3940 19.4966 11.6924 8.3940 15.6166 9.6118 8.3940 18.3880 10.0938 8.3940 19.4989 12.0284 8.3940 19.8407 12.5428 8.3940 19.4683 13.2566 8.3940 19.3278 13.9861 8.3940 19.0828 13.9702 8.3940 19.6325 12.3347 8.3940 19.6401 13.2453 8.3940 19.4302 13.5554 8.3940 19.1130 14.2249 8.3940 18.8752 14.5711 8.3940 15.8212 9.6338 8.3940 16.1481 9.7202 8.3940 18.9336 14.8325 8.3940 19.6039 12.4660 8.3940 16.7977 9.5300 8.3940 18.9448 10.4948 8.3940 17.4886 10.8295 2.0268 19.7046 11.7085 8.3940 19.7127 11.6345 8.3940 18.4204 9.9510 8.3940 19.2804 10.9989 8.3940 18.9573 14.5156 8.3940 18.3872 9.8881 8.3940 17.5352 9.6723 8.3940 15.8425 9.5794 8.3940 19.3787 14.4041 8.3940 16.7143 5.8798 1.4069 18.7701 14.6619 8.3940 19.0857 10.7720 8.3940 19.5648 11.1207 8.3940 17.4012 10.0000 0.7417 17.9644 9.5452 8.3940 19.1290 10.7807 8.3940 19.8524 12.2301 8.3940 19.5468 11.4032 8.3940 19.0616 14.5499 8.3940 18.6460 10.3868 8.3940 19.6235 12.6818 8.3940 18.9294 10.5781 8.3940 19.8134 12.3702 8.3940 15.3276 9.5289 8.3940 16.5617 9.6348 8.3940 19.5547 11.8892 8.3940 17.5428 11.1227 1.8270 17.5753 9.6601 8.3940 19.5705 12.3318 8.3940 17.3959 9.4327 8.3940 19.2427 13.9690 8.3940 18.7154 10.5538 8.3940 19.5816 12.2804 8.3940 18.4234 14.7961 8.3940 19.5877 11.6415 8.3940 15.1572 9.9084 8.3940 17.6740 9.9245 8.3940 19.3212 14.0801 8.3940 15.4833 9.7001 8.3940 15.2541 10.0351 8.3940 19.0971 14.3420 8.3940 19.0139 14.1093 8.3940 17.7054 10.0000 3.0991 17.2073 9.7048 8.3940 18.8764 10.5134 8.3940 15.9426 7.8658 5.2887 17.4975 9.8633 1.8518 17.7509 10.2601 4.3223 18.7488 10.3678 8.3940 18.8036 14.4040 8.3940 18.6937 14.4015 8.3940 18.7091 10.3019 8.3940 19.5408 12.8185 8.3940 17.5719 6.0222 3.7642 15.5953 9.9938 8.3940 19.5224 12.2660 8.3940 19.3925 13.5945 8.3940 18.3419 14.7396 8.3940 17.7675 10.0697 2.0401 15.5857 9.6669 8.3940 18.5540 10.1455 8.3940 19.3954 13.7139 8.3940 16.6155 6.1393 3.2128 19.6085 12.5008 8.3940 19.0786 11.2277 8.3940 18.8908 11.1220 8.3940 19.1487 14.1946 8.3940 18.6368 14.3722 8.3940 19.3653 11.1273 8.3940 19.7374 12.2842 8.3940 17.3924 10.0971 0.8983 16.4640 9.6672 8.3940 18.2042 10.4546 8.3940 18.5429 10.4597 8.3940 19.4553 11.5079 8.3940 19.1674 13.7759 8.3940 17.1717 9.9323 8.3940 16.4973 9.6701 8.3940 19.0066 11.1242 8.3940 18.6780 14.3585 8.3940 15.8898 9.8575 8.3940 18.8381 14.5416 8.3940 19.1944 11.6696 8.3940 17.7707 10.1761 8.3940 19.4404 13.5694 8.3940 16.5064 9.7039 8.3940 18.6705 14.3560 8.3940 16.9077 9.5749 8.3940 19.5468 12.7493 8.3940 15.9868 9.9648 8.3940 19.2504 13.8931 8.3940 15.7795 9.7853 8.3940 19.3867 11.3169 8.3940 16.5264 9.8989 8.3940 18.5921 14.5989 8.3940 16.5308 9.8594 8.3940 18.4870 10.1387 8.3940 19.5977 12.5482 8.3940 15.6935 10.0006 8.3940 19.4041 13.5091 8.3940 17.7190 6.7756 1.9614 18.6370 10.5655 8.3940 19.4729 13.8029 8.3940 15.8258 9.6303 8.3940 18.6046 10.5982 8.3940 19.1232 14.1113 8.3940 19.2718 11.4302 8.3940 18.6993 10.1954 8.3940 19.5079 12.3398 8.3940 17.8444 9.8352 8.3940 16.9600 9.6935 8.3940 17.4778 8.8196 0.6240 19.4979 13.1571 8.3940 15.9240 9.6107 8.3940 19.3119 11.9553 8.3940 19.6466 13.1339 8.3940 19.0235 14.4798 8.3940 17.7226 10.4747 1.7943 16.7182 9.6123 8.3940 17.6204 9.9446 8.3940 16.3076 9.4895 8.3940 18.1109 10.2013 8.3940 17.4741 9.9277 8.3940 19.2727 11.7788 8.3940 16.5238 9.8614 8.3940 18.8390 14.5258 8.3940 18.1372 10.2863 8.3940 18.9366 14.1936 8.3940 19.3341 11.7099 8.3940 19.1585 13.8636 8.3940 18.7211 14.7679 8.3940 19.0004 14.1879 8.3940 19.3713 11.4425 8.3940 16.7219 9.5667 8.3940 16.8819 9.8672 8.3940 16.1411 9.7857 8.3940 19.1725 11.3014 8.3940 18.7580 14.4617 8.3940 18.8708 13.9417 8.3940 19.6288 13.0748 8.3940 15.6411 10.0257 8.3940 17.2343 9.7099 8.3940 15.5237 9.8129 8.3940 16.2179 6.3247 0.6773 19.5900 12.5987 8.3940 19.3370 11.3379 8.3940 15.8906 9.8555 8.3940 19.1869 13.5727 8.3940 19.0895 13.9506 8.3940 19.6450 12.2671 8.3940 18.9962 11.0779 8.3940 18.4118 10.4926 8.3940 16.7070 9.6124 8.3940 19.5352 12.5163 8.3940 15.4084 6.2424 5.3590 19.4256 12.0472 8.3940 17.1246 9.8069 8.3940 16.4181 9.7083 8.3940 19.2296 12.9188 8.3940 17.8596 9.8674 8.3940 19.1308 12.6234 8.3940 19.4298 12.3634 8.3940 19.1540 14.1290 8.3940 18.9218 14.2079 8.3940 19.3137 12.6841 8.3940 18.6312 14.4167 8.3940 17.9960 9.9986 8.3940 15.3765 14.8096 8.3940 18.9796 11.4291 8.3940 17.5250 10.0841 8.3940 18.1018 8.3086 1.1634 18.0880 7.0120 1.9551 19.2125 11.4489 8.3940 18.3716 14.6300 8.3940 18.4582 10.5058 8.3940 15.2549 7.2062 0.7422 18.9815 11.6102 8.3940 15.6556 10.0992 8.3940 17.4368 10.1115 8.3940 19.3962 12.7812 8.3940 18.2932 14.5348 8.3940 18.5844 14.4697 8.3940 17.4520 9.9144 8.3940 16.3521 9.6914 8.3940 17.7181 10.0004 8.3940 19.4191 13.1724 8.3940 16.1884 9.7500 8.3940 15.3044 10.3504 8.3940 16.6445 9.8062 8.3940 17.5677 9.9740 8.3940 15.9202 10.0428 8.3940 15.2785 9.9367 8.3940 18.9615 10.3742 2.2456 15.1040 10.1240 8.3940 17.2537 10.0400 8.3940 19.4083 12.7942 8.3940 19.4962 12.8995 8.3940 17.2020 10.0669 8.3940 19.1735 13.0134 8.3940 18.4142 14.5157 8.3940 19.4349 12.0949 8.3940 19.3018 13.1738 8.3940 19.2415 12.3589 8.3940 15.2913 14.6462 8.3940 17.0546 9.6426 8.3940 17.6178 9.8223 8.3940 16.6028 9.8581 8.3940 17.0760 5.8218 1.9053 19.0200 13.6957 8.3940 15.7539 9.8791 8.3940 18.4580 10.7003 8.3940 18.8491 10.8814 8.3940 15.3076 5.3882 3.5622 18.5483 10.8423 8.3940 18.0260 10.1760 8.3940 19.3160 12.1423 8.3940 16.8364 9.9749 8.3940 18.7388 13.9987 8.3940 18.4501 14.6550 8.3940 18.5921 14.2618 8.3940 18.0268 10.4373 8.3940 15.2516 10.2680 8.3940 17.5256 9.8783 8.3940 19.2277 13.5351 8.3940 15.1891 10.0907 8.3940 16.6034 9.8950 8.3940 18.9758 11.1885 8.3940 19.5507 12.4436 8.3940 17.9169 10.0297 8.3940 18.6086 14.2529 8.3940 18.5443 10.8888 8.3940 15.7475 10.1199 8.3940 16.1781 9.9494 8.3940 18.5772 14.6809 8.3940 18.9792 13.7916 8.3940 19.1178 11.3046 8.3940 18.1974 14.6023 8.3940 17.3831 9.8692 8.3940 19.1418 12.3655 8.3940 18.2126 10.2582 8.3940 16.2776 9.9958 8.3940 17.6733 10.1013 8.3940 17.3623 9.8096 8.3940 19.3079 12.1010 8.3940 18.5622 10.6049 8.3940 17.7266 9.9918 8.3940 17.3350 10.1540 8.3940 17.3547 9.8967 8.3940 17.6967 9.9252 8.3940 15.1669 10.5526 8.3940 18.7599 10.8809 8.3940 19.0300 11.1533 8.3940 18.3558 10.6121 8.3940 19.0596 11.1277 8.3940 18.9006 13.7000 8.3940 19.1082 12.8511 8.3940 16.8636 10.0734 8.3940 18.6620 10.9629 8.3940 15.5584 10.2768 8.3940 15.8473 9.8967 8.3940 18.7518 13.8959 8.3940 18.9622 11.4999 8.3940 15.1991 14.7793 8.3940 18.1836 10.6543 8.3940 18.6414 14.4261 8.3940 16.7585 10.0970 8.3940 15.7900 10.0587 8.39
[...]
    <PointData>
        <DataArray type="Float32" Name="tag" format="ascii">
            10611.0000 12631.0000 14587.0000 29691.0000 30607.0000 33571.0000 39383.0000 39535.0000 66299.0000 47311.0000 48039.0000 48363.0000 50039.0000 50047.0000 50735.0000 53539.0000 55283.0000 56307.0000 57183.0000 58471.0000 59927.0000 60495.0000 60563.0000 62419.0000 62951.0000 63815.0000 63927.0000 64587.0000 65551.0000 66439.0000 66479.0000 66523.0000 72203.0000 86623.0000 67267.0000 69479.0000 69491.0000 69651.0000 70879.0000 70911.0000 72047.0000 73115.0000 74755.0000 74783.0000 74839.0000 75595.0000 75631.0000 75651.0000 75683.0000 75719.0000 77315.0000 77351.0000 77451.0000 77663.0000 79911.0000 79999.0000 80831.0000 81759.0000 83415.0000 84667.0000 84695.0000 85127.0000 85171.0000 85227.0000 85959.0000 86047.0000 86067.0000 91603.0000 92939.0000 102899.0000 86895.0000 86915.0000 86999.0000 87707.0000 87807.0000 87995.0000 89475.0000 90231.0000 90363.0000 90915.0000 90963.0000 91823.0000 91843.0000 92415.0000 93203.0000 93219.0000 93343.0000 93455.0000 93983.0000 94103.0000 94623.0000 95307.0000 95419.0000 97871.0000 97887.0000 97919.0000 97923.0000 97939.0000 98015.0000 98019.0000 100295.0000 100303.0000 100319.0000 100331.0000 100383.0000 101083.0000 101127.0000 101167.0000 101279.0000 101991.0000 102159.0000 102287.0000 102335.0000 103039.0000 103075.0000 104007.0000 104159.0000 104183.0000 104903.0000 104923.0000 104979.0000 105639.0000 105775.0000 106419.0000 106487.0000 106531.0000 106683.0000 106723.0000 120615.0000 116047.0000 119071.0000 112803.0000 111103.0000 120519.0000 123519.0000 124311.0000 118167.0000 115931.0000 119699.0000 114371.0000 120467.0000 110191.0000 123451.0000 112655.0000 117423.0000 119647.0000 116519.0000 121143.0000 124231.0000 119615.0000 114323.0000 118859.0000 112591.0000 112587.0000 115831.0000 118847.0000 114291.0000 118039.0000 126603.0000 118835.0000 109327.0000 118011.0000 122615.0000 125743.0000 107295.0000 107391.0000 107483.0000 108099.0000 108195.0000 108231.0000 108459.0000 109035.0000 109983.0000 110759.0000 110803.0000 110831.0000 110903.0000 111475.0000 111515.0000 111623.0000 111655.0000 113155.0000 113419.0000 113447.0000 114915.0000 114943.0000 117167.0000 117855.0000 118591.0000 120111.0000 120251.0000 121031.0000 121611.0000 121651.0000 122539.0000 123099.0000 123203.0000 123219.0000 123227.0000 124043.0000 124659.0000 124799.0000 124823.0000 125439.0000 125547.0000 126351.0000 126479.0000 136687.0000 130987.0000 129239.0000 129223.0000 130079.0000 140543.0000 129147.0000 130015.0000 128347.0000 128339.0000 136319.0000 134455.0000 132687.0000 134423.0000 134395.0000 141259.0000 137295.0000 143831.0000 146619.0000 146611.0000 129943.0000 143815.0000 135259.0000 131651.0000 129919.0000 130631.0000 145639.0000 139651.0000 142919.0000 145607.0000 146567.0000 140379.0000 131583.0000 142891.0000 143731.0000 129859.0000 145547.0000 142859.0000 132507.0000 142823.0000 135139.0000 139583.0000 146515.0000 140307.0000 145475.0000 142775.0000 127299.0000 141115.0000 140303.0000 136147.0000 136143.0000 142003.0000 136135.0000 144575.0000 133359.0000 144551.0000 127103.0000 127123.0000 128059.0000 128067.0000 128115.0000 128847.0000 129623.0000 129799.0000 130475.0000 131391.0000 131415.0000 132207.0000 132307.0000 132423.0000 132439.0000 133063.0000 133111.0000 133123.0000 133211.0000 134147.0000 134151.0000 134899.0000 134927.0000 134947.0000 135787.0000 135839.0000 136003.0000 136027.0000 136055.0000 136103.0000 136755.0000 136943.0000 137687.0000 137691.0000 137771.0000 137843.0000 137867.0000 137975.0000 138683.0000 138711.0000 138787.0000 138839.0000 139395.0000 139491.0000 140147.0000 140171.0000 140879.0000 140919.0000 141047.0000 141631.0000 141659.0000 141715.0000 141775.0000 141823.0000 141867.0000 142691.0000 143455.0000 143639.0000 144259.0000 144415.0000 144479.0000 145187.0000 145287.0000 145295.0000 146147.0000 146191.0000 146207.0000 146247.0000 147819.0000 150499.0000 148495.0000 151211.0000 152203.0000 151171.0000 155915.0000 149359.0000 149355.0000 158735.0000 158719.0000 150235.0000 150227.0000 151103.0000 160563.0000 154891.0000 156843.0000 150207.0000 153015.0000 157683.0000 160535.0000 147339.0000 164215.0000 149227.0000 154871.0000 152995.0000 152103.0000 160507.0000 152099.0000 154863.0000 147143.0000 147211.0000 147235.0000 147239.0000 147283.0000 147287.0000 147983.0000 148067.0000 148275.0000 148867.0000 149087.0000 149103.0000 149179.0000 149903.0000 149991.0000 150079.0000 150911.0000 150935.0000 150975.0000 150999.0000 151003.0000 151699.0000 151723.0000 151823.0000 151839.0000 151971.0000 151999.0000 152039.0000 152087.0000 152867.0000 152891.0000 152895.0000 152971.0000 152975.0000 153535.0000 153651.0000 153831.0000 153943.0000 153959.0000 154519.0000 154587.0000 154719.0000 154743.0000 154819.0000 155431.0000 155447.0000 155675.0000 156587.0000 156607.0000 156711.0000 156799.0000 157319.0000 157447.0000 157579.0000 158259.0000 158655.0000 159143.0000 159303.0000 159331.0000 159371.0000 159395.0000 159435.0000 159559.0000 160111.0000 160151.0000 160207.0000 160311.0000 160395.0000 160411.0000 160459.0000 161107.0000 161163.0000 161195.0000 161211.0000 161219.0000 161387.0000 161439.0000 162987.0000 163031.0000 163147.0000 163203.0000 163315.0000 163395.0000 164767.0000 165067.0000 165099.0000 165167.0000 166679.0000 166791.0000 166859.0000 166903.0000 167059.0000 168935.0000 170199.0000 170211.0000 170227.0000 170383.0000 170571.0000 171811.0000 171823.0000 171967.0000 171983.0000 172083.0000 172103.0000 172107.0000 172111.0000 172115.0000 172163.0000 207371.0000 183111.0000 204651.0000 204291.0000 208763.0000 210279.0000 204531.0000 203075.0000 174731.0000 200131.0000 181263.0000 205627.0000 208539.0000 173587.0000 175163.0000 175171.0000 175259.0000 175351.0000 175407.0000 175455.0000 176787.0000 176947.0000 177095.0000 178423.0000 178743.0000 180247.0000 180295.0000 180339.0000 180455.0000 181819.0000 183371.0000 183383.0000 183435.0000 183627.0000 183687.0000 183783.0000 185003.0000 185351.0000 185375.0000 185483.0000 187471.0000 188391.0000 188527.0000 188583.0000 188643.0000 188819.0000 189935.0000 189967.0000 190083.0000 190267.0000 190291.0000 190355.0000 190359.0000 191487.0000 191523.0000 191579.0000 191771.0000 191807.0000 191935.0000 191955.0000 193007.0000 193043.0000 193091.0000 193147.0000 193155.0000 193263.0000 193271.0000 193275.0000 193371.0000 193399.0000 193403.0000 194395.0000 194747.0000 194831.0000 194871.0000 195859.0000 195887.0000 195919.0000 196071.0000 196263.0000 197447.0000 197491.0000 197591.0000 197687.0000 198991.0000 199051.0000 199083.0000 199227.0000 199395.0000 200303.0000 200451.0000 200519.0000 200547.0000 200635.0000 200643.0000 201771.0000 201823.0000 202055.0000 202111.0000 202163.0000 202219.0000 202283.0000 203267.0000 203371.0000 203479.0000 203495.0000 203879.0000 204867.0000 204895.0000 204927.0000 204983.0000 205391.0000 205407.0000 206419.0000 206503.0000 206603.0000 206643.0000 206651.0000 206655.0000 207811.0000 207971.0000 208159.0000 209291.0000 209367.0000 209415.0000 209539.0000 209543.0000 209551.0000 210023.0000 210671.0000 210683.0000 210735.0000 210739.0000 210815.0000 210827.0000 211027.0000 212251.0000 212363.0000 212367.0000 212387.0000 212399.0000 212419.0000 212439.0000 212519.0000 212567.0000 212959.0000 222627.0000 222623.0000 238807.0000 232631.0000 232587.0000 249455.0000 235695.0000 234275.0000 215083.0000 249431.0000 238455.0000 226639.0000 234511.0000 239707.0000 247303.0000 235579.0000 241199.0000 246319.0000 232775.0000 243083.0000 249179.0000 213811.0000 213843.0000 215391.0000 215499.0000 215627.0000 216943.0000 216999.0000 217011.0000 217147.0000 217187.0000 217803.0000 218559.0000 219739.0000 219947.0000 220123.0000 220151.0000 221339.0000 221367.0000 221443.0000 221527.0000 221647.0000 223047.0000 224103.0000 224163.0000 224359.0000 224447.0000 224459.0000 224987.0000 225551.0000 225591.0000 225631.0000 225771.0000 225823.0000 225847.0000 225899.0000 225939.0000 226979.0000 227119.0000 227183.0000 227195.0000 227203.0000 227247.0000 227303.0000 227735.0000 228455.0000 228471.0000 228499.0000 228527.0000 229083.0000 229887.0000 229967.0000 230211.0000 230247.0000 230283.0000 231495.0000 231571.0000 231671.0000 231687.0000 231695.0000 231807.0000 233055.0000 233063.0000 233163.0000 233291.0000 233379.0000 233551.0000 233587.0000 234119.0000 234803.0000 234947.0000 234975.0000 235263.0000 236095.0000 236215.0000 236267.0000 236391.0000 237807.0000 237843.0000 238875.0000 238951.0000 238999.0000 239119.0000 239187.0000 239199.0000 240307.0000 240551.0000 240555.0000 240667.0000 241091.0000 241859.0000 241955.0000 242099.0000 242707.0000 243531.0000 243675.0000 243719.0000 244927.0000 244959.0000 245227.0000 245815.0000 246463.0000 246615.0000 246647.0000 246703.0000 246763.0000 248067.0000 248139.0000 248203.0000 248551.0000 249607.0000 249643.0000 249755.0000 249979.0000 251191.0000 251327.0000 251875.0000 265159.0000 274555.0000 267067.0000 267059.0000 258915.0000 256723.0000 253723.0000 265059.0000 257187.0000 288135.0000 287463.0000 265019.0000 265643.0000 274435.0000 283743.0000 285559.0000 291879.0000 274999.0000 260183.0000 288083.0000 273107.0000 284327.0000 274355.0000 287303.0000 291051.0000 291003.0000 271183.0000 276163.0000 269363.0000 287211.0000 263863.0000 285367.0000 272443.0000 260515.0000 253955.0000 258703.0000 269227.0000 269191.0000 267283.0000 278611.0000 258611.0000 290919.0000 287115.0000 287931.0000 280371.0000 276535.0000 280331.0000 280323.0000 276503.0000 282051.0000 272787.0000 289627.0000 287727.0000 289531.0000 252667.0000 252687.0000 252987.0000 254299.0000 254455.0000 254547.0000 254563.0000 254599.0000 255783.0000 255851.0000 255863.0000 255903.0000 255999.0000 256199.0000 256355.0000 257367.0000 257491.0000 257551.0000 257559.0000 257843.0000 259003.0000 259235.0000 259263.0000 259347.0000 260751.0000 260835.0000 260851.0000 260899.0000 261003.0000 262571.0000 262627.0000 262847.0000 262915.0000 262947.0000 262979.0000 264163.0000 264363.0000 264411.0000 264539.0000 265783.0000 265787.0000 265823.0000 265871.0000 266331.0000 266375.0000 266403.0000 266703.0000 267659.0000 267851.0000 267927.0000 268003.0000 268103.0000 268235.0000 269619.0000 269791.0000 269835.0000 269927.0000 270007.0000 270055.0000 270151.0000 270195.0000 271567.0000 271671.0000 271799.0000 271963.0000 271995.0000 273271.0000 273407.0000 273443.0000 273447.0000 273603.0000 273643.0000 273835.0000 273867.0000 275267.0000 275395.0000 275431.0000 275539.0000 275571.0000 275903.0000 275995.0000 277223.0000 277371.0000 277767.0000 277787.0000 278947.0000 278959.0000 279155.0000 279179.0000 279183.0000 279243.0000 279327.0000 279335.0000 279467.0000 279487.0000 279591.0000 279759.0000 281123.0000 281379.0000 281475.0000 282827.0000 282951.0000 283155.0000 283195.0000 284539.0000 284691.0000 284703.0000 284859.0000 284947.0000 285043.0000 285059.0000 285287.0000 286391.0000 286807.0000 286823.0000 287047.0000 288271.0000 288403.0000 288523.0000 288563.0000 288587.0000 288659.0000 288887.0000 290383.0000 290627.0000 290643.0000 290899.0000 306939.0000 304423.0000 325963.0000 295043.0000 304403.0000 326863.0000 325431.0000 332703.0000 329775.0000 326843.0000 331759.0000 326827.0000 323067.0000 321019.0000 316459.0000 302411.0000 332671.0000 332651.0000 326787.0000 293083.0000 332639.0000 332603.0000 302351.0000 308203.0000 296739.0000 331083.0000 296731.0000 320107.0000 331063.0000 321539.0000 306015.0000 329607.0000 308147.0000 328255.0000 322491.0000 305991.0000 305975.0000 328239.0000 314775.0000 316299.0000 305955.0000 325879.0000 321515.0000 300387.0000 329547.0000 325211.0000 320087.0000 312943.0000 294731.0000 329515.0000 296611.0000 320871.0000 294699.0000 304823.0000 333111.0000 308035.0000 311323.0000 330155.0000 319499.0000 322423.0000 305883.0000 315231.0000 305871.0000 325115.0000 320815.0000 327287.0000 324347.0000 328163.0000 325103.0000 329427.0000 292783.0000 311947.0000 325795.0000 302119.0000 304751.0000 328155.0000 310251.0000 293511.0000 295311.0000 302859.0000 321407.0000 308631.0000 323751.0000 313539.0000 293443.0000 293411.0000 308603.0000 321363.0000 302747.0000 328135.0000 323743.0000 323735.0000 332975.0000 295119.0000 304579.0000 308547.0000 300723.0000 302579.0000 310047.0000 313303.0000 313295.0000 309943.0000 319887.0000 318323.0000 325603.0000 332875.0000 325559.0000 332867.0000 329815.0000 331243.0000 292011.0000 292159.0000 292443.0000 292447.0000 292567.0000 292715.0000 293895.0000 294147.0000 294259.0000 294335.0000 294383.0000 296219.0000 296331.0000 296371.0000 296447.0000 298067.0000 298191.0000 298231.0000 298275.0000 299895.0000 299919.0000 299975.0000 300043.0000 301667.0000 301747.0000 301807.0000 303251.0000 303463.0000 303495.0000 303651.0000 303915.0000 305383.0000 305543.0000 305659.0000 305807.0000 307111.0000 307299.0000 307411.0000 307535.0000 307651.0000 307755.0000 307787.0000 307803.0000 308915.0000 308967.0000 309215.0000 309243.0000 309279.0000 309427.0000 309511.0000 309523.0000 309575.0000 310803.0000 310835.0000 311119.0000 311123.0000 311127.0000 311179.0000 312467.0000 314167.0000 314503.0000 315959.0000 316107.0000 316127.0000 317283.0000 317295.0000 317539.0000 317543.0000 317663.0000 317687.0000 317735.0000 317863.0000 319199.0000 319259.0000 321743.0000 321919.0000 321987.0000 323315.0000 323451.0000 323515.0000 323643.0000 323651.0000 324567.0000 324579.0000 324743.0000 324755.0000 324903.0000 325039.0000 326091.0000 326111.0000 326163.0000 326287.0000 326303.0000 326491.0000 327767.0000 327791.0000 327999.0000 328067.0000 329075.0000 329243.0000 329263.0000 330407.0000 330555.0000 330659.0000 330703.0000 330767.0000 331955.0000 332003.0000 332215.0000 340639.0000 367171.0000 361927.0000 337587.0000 347959.0000 349999.0000 372563.0000 367115.0000 355359.0000 352763.0000 335615.0000 364791.0000 366455.0000 343175.0000 359815.0000 347947.0000 357439.0000 359811.0000 358591.0000 339943.0000 358579.0000 370099.0000 353639.0000 350899.0000 358563.0000 338355.0000 352219.0000 339923.0000 361299.0000 361295.0000 349443.0000 370063.0000 334087.0000 338331.0000 339891.0000 364703.0000 352191.0000 341511.0000 359751.0000 357379.0000 338991.0000 343091.0000 364671.0000 353555.0000 338307.0000 364635.0000 353531.0000 334031.0000 359687.0000 369983.0000 341471.0000 334015.0000 344695.0000 356559.0000 366307.0000 343051.0000 340547.0000 352087.0000 339811.0000 371859.0000 368183.0000 361191.0000 362831.0000 350807.0000 356083.0000 362787.0000 333975.0000 352043.0000 333967.0000 359655.0000 368135.0000 362771.0000 335487.0000 361163.0000 366271.0000 345339.0000 352035.0000 342959.0000 352011.0000 371783.0000 357271.0000 348499.0000 353447.0000 366235.0000 366223.0000 341371.0000 363391.0000 351987.0000 368083.0000 344567.0000 368079.0000 356043.0000 351979.0000 353431.0000 336867.0000 357247.0000 369855.0000 366203.0000 336847.0000 354659.0000 339711.0000 333919.0000 338159.0000 351951.0000 358347.0000 337467.0000 364443.0000 362695.0000 357227.0000 354615.0000 342095.0000 358331.0000 366151.0000 355995.0000 353367.0000 348471.0000 349303.0000 364395.0000 353351.0000 366135.0000 365215.0000 362643.0000 368827.0000 351871.0000 344475.0000 358307.0000 369767.0000 366119.0000 371683.0000 362631.0000 337455.0000 337451.0000 360211.0000 342067.0000 340423.0000 339591.0000 364319.0000 333863.0000 364315.0000 369727.0000 366075.0000 335939.0000 347699.0000 341255.0000 349243.0000 335931.0000 355927.0000 364307.0000 339571.0000 339563.0000 343579.0000 355911.0000 367947.0000 364291.0000 350579.0000 351807.0000 355899.0000 355895.0000 351231.0000 351799.0000 335311.0000 334491.0000 360167.0000 335299.0000 372271.0000 353275.0000 348339.0000 350535.0000 372251.0000 353895.0000 341955.0000 342743.0000 351767.0000 371587.0000 334439.0000 347635.0000 351183.0000 353263.0000 341915.0000 371571.0000 337331.0000 354479.0000 349731.0000 337307.0000 335279.0000 363171.0000 338667.0000 337295.0000 335275.0000 350491.0000 358787.0000 356327.0000 351119.0000 355099.0000 355095.0000 352463.0000 351095.0000 345027.0000 340183.0000 341759.0000 343383.0000 346575.0000 335723.0000 344991.0000 344987.0000 363127.0000 344971.0000 337147.0000 372143.0000 337087.0000 371551.0000 340047.0000 348107.0000 348083.0000 353751.0000 341555.0000 346463.0000 346447.0000 353735.0000 344843.0000 346423.0000 353711.0000 353679.0000 363055.0000 354907.0000 359911.0000 361439.0000 364883.0000 361371.0000 368351.0000 368339.0000 370183.0000 333403.0000 333547.0000 334747.0000 334779.0000 334867.0000 334987.0000 336439.0000 337651.0000 337763.0000 337791.0000 337799.0000 337835.0000 337939.0000 337943.0000 341071.0000 342267.0000 343911.0000 344091.0000 344103.0000 345499.0000 345583.0000 345707.0000 345795.0000 345879.0000 347111.0000 347191.0000 347267.0000 347383.0000 347431.0000 347443.0000 347459.0000 349047.0000 349051.0000 350027.0000 350259.0000 350275.0000 350331.0000 350359.0000 351471.0000 351559.0000 351615.0000 351635.0000 352963.0000 353091.0000 354311.0000 355579.0000 356735.0000 356775.0000 357043.0000 357927.0000 358031.0000 358067.0000 358187.0000 359087.0000 359255.0000 360727.0000 361983.0000 362475.0000 364183.0000 365451.0000 365459.0000 365643.0000 365731.0000 365783.0000 365831.0000 365855.0000 365867.0000 365891.0000 367323.0000 367759.0000 367803.0000 369071.0000 369087.0000 369327.0000 369403.0000 370815.0000 370951.0000 371103.0000 371111.0000 371127.0000 371167.0000 371175.0000 371367.0000 376223.0000 409443.0000 377351.0000 390995.0000 377339.0000 379127.0000 404231.0000 390123.0000 390979.0000 405943.0000 377291.0000 377287.0000 390111.0000 402615.0000 375447.0000 380847.0000 409355.0000 384499.0000 379063.0000 384495.0000 399107.0000 380835.0000 400867.0000 379787.0000 407691.0000 380799.0000 395659.0000 409331.0000 411791.0000 409319.0000 404131.0000 402571.0000 378991.0000 375355.0000 409315.0000 395619.0000 382659.0000 399043.0000 378983.0000 413471.0000 407667.0000 383367.0000 392175.0000 377187.0000 405815.0000 378967.0000 390927.0000 386195.0000 375311.0000 407655.0000 397251.0000 386183.0000 386179.0000 400779.0000 386155.0000 407643.0000 398987.0000 404047.0000 392119.0000 382555.0000 381523.0000 386127.0000 389975.0000 384391.0000 392091.0000 374319.0000 400763.0000 410003.0000 412547.0000 377127.0000 377119.0000 393731.0000 400719.0000 410943.0000 392067.0000 399747.0000 407567.0000 408347.0000 373483.0000 406579.0000 402439.0000 377063.0000 387967.0000 412499.0000 389899.0000 392043.0000 407547.0000 382487.0000 389887.0000 386003.0000 383283.0000 380635.0000 377035.0000 392015.0000 376031.0000 400647.0000 382455.0000 413331.0000 386871.0000 384299.0000 401431.0000 376999.0000 378755.0000 384271.0000 404871.0000 388859.0000 390835.0000 403151.0000 401419.0000 386847.0000 376979.0000 390795.0000 399679.0000 386819.0000 412351.0000 397931.0000 392807.0000 381371.0000 406479.0000 409891.0000 376955.0000 408259.0000 373347.0000 384223.0000 375079.0000 408251.0000 373327.0000 393567.0000 409855.0000 380543.0000 403819.0000 406455.0000 373315.0000 384215.0000 403807.0000 386755.0000 378695.0000 375055.0000 382335.0000 390707.0000 409823.0000 373295.0000 383087.0000 381279.0000 374995.0000 391863.0000 392679.0000 387735.0000 376867.0000 403763.0000 374971.0000 386663.0000 408171.0000 402167.0000 379483.0000 403747.0000 396007.0000 374947.0000 413139.0000 387703.0000 399451.0000 375823.0000 377611.0000 401191.0000 394259.0000 399431.0000 392623.0000 382983.0000 381151.0000 399399.0000 406267.0000 382959.0000 379371.0000 399359.0000 377503.0000 394187.0000 409663.0000 413031.0000 408035.0000 384771.0000 377439.0000 382839.0000 373803.0000 394139.0000 377411.0000 380983.0000 395883.0000 406223.0000 390407.0000 394111.0000 394103.0000 386447.0000 397627.0000 401099.0000 399327.0000 380923.0000 379163.0000 384667.0000 406215.0000 390315.0000 3863