<?xml version="1.0"?>
<VTKFile type="RectilinearGrid" version="1.0" byte_order="LittleEndian" header_type="UInt64">
<RectilinearGrid WholeExtent="25 50 0 25 0 15">
<Piece Extent="25 50 0 25 0 15">
<Coordinates>
<DataArray type="Float64" Name="Array X-Axis" format="ascii" RangeMin="15.0" RangeMax="30.0">
15.0 15.6 16.2 16.8 17.4 18.0 18.6 19.2 19.8 20.4 21.0 21.6 22.2 22.8 23.4 24.0 24.6 25.2 25.8 26.4 27.0 27.6 28.2 28.8 29.4 30.0 
</DataArray>
<DataArray type="Float64" Name="Array Y-Axis" format="ascii" RangeMin="0.0" RangeMax="15.0">
0.0 0.6 1.2 1.8 2.4 3.0 3.6 4.2 4.8 5.4 6.0 6.6 7.2 7.8 8.4 9.0 9.6 10.2 10.8 11.4 12.0 12.6 13.2 13.8 14.4 15.0 
</DataArray>
<DataArray type="Float64" Name="Array Z-Axis" format="ascii" RangeMin="0.0" RangeMax="9.0">
0.0 0.6 1.2 1.8 2.4 3.0 3.6 4.2 4.8 5.4 6.0 6.6 7.2 7.8 8.4 9.0 
</DataArray>
</Coordinates>
<PointData>
<DataArray Name="TEMPERATURE" NumberOfComponents="1" type="Float64" format="ascii">
20.0 20.0 20.0 20.0 20.0 20.0 20.0 20.0 20.0 20.0 20.0 20.0 20.0 20.0 20.0 20.0 20.0 20.0 20.0 20.0 20.0 20.1 20.1 20.1 20.1 20.1 20.1 20.1 20.1 20.1 20.1 20.1 20.1 20.1 20.1 20.1 20.1 20.1 20.1 20.1 20.1 20.1 20.1 20.1 20.1 20.1 20.1 20.1 20.1 20.1 20.1 20.1 20.1 20.1 20.1 20.1 20.1 20.1 20.1 20.1 20.2 20.2 20.2 20.1 20.1 20.1 20.1 20.2 20.2 20.2 20.2 20.2 20.2 20.2 20.2 20.2 20.1 20.1 20.2 20.2 20.2 20.2 20.2 20.2 20.2 20.2 20.3 20.3 20.3 20.3 20.2 20.3 20.3 20.3 20.3 20.3 20.3 20.3 20.3 20.3 20.3 20.2 20.1 20.1 20.3 20.3 20.3 20.4 20.4 20.4 20.3 20.4 20.4 20.4 20.4 20.4 20.4 20.4 20.4 20.4 20.4 20.4 20.4 20.4 20.3 20.3 20.3 20.2 20.1 20.1 20.4 20.5 20.5 20.5 20.5 20.5 20.5 20.6 20.6 20.6 20.6 20.6 20.5 20.5 20.5 20.5 20.5 20.5 20.5 20.4 20.4 20.4 20.3 20.2 20.1 20.0 20.6 20.6 20.7 20.7 20.7 20.7 20.7 20.8 20.8 20.8 20.8 20.7 20.7 20.7 20.6 20.6 20.6 20.5 20.5 20.5 20.4 20.4 20.3 20.2 20.1 20.0 20.7 20.7 20.8 20.9 20.9 20.9 20.9 21.0 21.0 21.0 20.9 20.8 20.8 20.8 20.7 20.7 20.6 20.6 20.5 20.5 20.5 20.4 20.3 20.2 20.1 20.0 20.8 20.9 21.0 21.1 21.1 21.1 21.1 21.2 21.2 21.2 21.0 21.0 20.9 20.9 20.8 20.8 20.7 20.7 20.6 20.6 20.5 20.4 20.3 20.2 20.1 20.0 20.9 21.0 21.1 21.2 21.3 21.4 21.4 21.4 21.4 21.3 21.2 21.1 21.0 21.0 20.9 20.9 20.8 20.7 20.7 20.6 20.6 20.4 20.3 20.2 20.1 20.0 21.0 21.1 21.3 21.4 21.5 21.6 21.7 21.7 21.6 21.5 21.3 21.3 21.2 21.1 21.1 21.0 20.9 20.8 20.7 20.7 20.6 20.5 20.3 20.2 20.1 20.0 21.2 21.3 21.4 21.6 21.8 21.8 21.9 22.0 21.9 21.7 21.5 21.4 21.4 21.3 21.2 21.1 21.0 20.9 20.8 20.7 20.6 20.5 20.3 20.2 20.1 20.0 21.3 21.5 21.6 21.9 22.1 22.2 22.3 22.3 22.1 21.9 21.8 21.6 21.5 21.4 21.3 21.2 21.1 21.0 20.9 20.8 20.6 20.5 20.3 20.2 20.1 20.0 21.5 21.7 21.9 22.1 22.4 22.6 22.7 22.7 22.5 22.2 22.0 21.9 21.8 21.6 21.5 21.3 21.2 21.1 21.0 20.8 20.6 20.5 20.3 20.2 20.1 20.0 21.8 21.9 22.2 22.4 22.7 23.1 23.3 23.2 22.8 22.5 22.3 22.2 22.0 21.8 21.6 21.5 21.3 21.2 21.0 20.8 20.6 20.5 20.3 20.2 20.1 20.0 22.0 22.2 22.5 22.8 23.2 23.7 24.0 23.8 23.3 22.9 22.7 22.4 22.2 22.0 21.8 21.6 21.4 21.2 21.0 20.8 20.6 20.5 20.3 20.2 20.1 20.0 22.3 22.6 22.9 23.3 23.7 24.4 24.7 24.4 23.9 23.4 23.1 22.8 22.5 22.2 21.9 21.7 21.5 21.3 21.1 20.9 20.7 20.5 20.3 20.2 20.1 20.0 22.6 23.0 23.4 24.1 24.7 25.2 25.5 25.3 24.8 24.1 23.6 23.1 22.7 22.4 22.1 21.8 21.6 21.4 21.2 20.9 20.7 20.5 20.3 20.2 20.1 20.1 23.0 23.4 23.9 25.3 26.3 26.7 27.1 26.9 25.9 24.7 24.1 23.6 23.1 22.7 22.3 22.1 21.8 21.5 21.3 21.0 20.8 20.5 20.4 20.2 20.1 20.1 23.7 24.4 24.8 27.3 30.5 32.1 32.1 31.3 30.2 27.3 25.1 24.3 23.6 23.1 22.7 22.4 22.0 21.7 21.4 21.1 20.8 20.6 20.4 20.3 20.1 20.1 24.5 25.5 26.2 29.1 33.0 36.5 35.9 35.7 34.0 29.4 26.4 25.2 24.1 23.5 23.0 22.6 22.2 21.7 21.4 21.0 20.7 20.5 20.4 20.3 20.1 20.1 25.0 26.3 27.3 29.8 31.9 20.0 20.0 43.7 41.7 33.8 27.2 25.6 24.5 23.7 23.1 22.6 22.1 21.7 21.4 21.0 20.7 20.5 20.4 20.2 20.1 20.1 25.0 26.1 27.3 30.6 33.1 20.0 20.0 50.7 45.9 34.3 26.7 25.3 24.4 23.7 23.0 22.5 22.1 21.7 21.3 21.0 20.7 20.5 20.4 20.2 20.1 20.1 24.6 25.3 27.0 30.2 31.6 31.1 31.8 39.2 36.3 28.1 25.5 24.5 24.0 23.4 22.8 22.4 22.1 21.7 21.3 21.0 20.7 20.5 20.4 20.3 20.1 20.1 23.8 24.3 25.9 27.5 28.5 29.3 29.8 30.1 27.9 25.3 24.5 23.8 23.4 22.9 22.5 22.2 21.9 21.6 21.3 21.0 20.8 20.5 20.4 20.3 20.1 20.1 22.4 23.5 24.3 25.2 26.3 27.0 27.0 26.3 25.2 24.4 23.8 23.3 22.9 22.5 22.2 21.9 21.7 21.4 21.2 20.9 20.7 20.5 20.4 20.2 20.1 20.1 20.0 20.0 20.0 20.0 20.0 20.0 20.0 20.0 20.0 20.0 20.0 20.0 20.0 20.0 20.0 20.0 20.0 20.0 20.0 20.0 20.0 20.0 20.1 20.1 20.1 20.1 20.0 20.1 20.1 20.1 20.1 20.1 20.1 20.1 20.1 20.1 20.1 20.1 20.1 20.1 20.1 20.1 20.1 20.1 20.1 20.1 20.1 20.1 20.1 20.1 20.1 20.1 20.1 20.1 20.1 20.1 20.1 20.1 20.1 20.1 20.1 20.2 20.1 20.1 20.1 20.1 20.1 20.1 20.2 20.2 20.2 20.2 20.2 20.2 20.2 20.2 20.1 20.1 20.2 20.2 20.2 20.2 20.2 20.2 20.2 20.2 20.3 20.3 20.3 20.2 20.2 20.2 20.3 20.3 20.3 20.3 20.3 20.3 20.3 20.3 20.2 20.2 20.1 20.1 20.3 20.3 20.3 20.4 20.4 20.3 20.3 20.4 20.4 20.4 20.4 20.4 20.4 20.4 20.4 20.4 20.4 20.4 20.4 20.3 20.3 20.3 20.3 20.2 20.1 20.1 20.4 20.4 20.5 20.5 20.5 20.5 20.5 20.6 20.6 20.6 20.6 20.5 20.5 20.5 20.5 20.5 20.5 20.4 20.4 20.4 20.3 20.3 20.3 20.2 20.1 20.0 20.5 20.6 20.6 20.7 20.7 20.7 20.7 20.8 20.8 20.8 20.7 20.7 20.6 20.6 20.6 20.6 20.5 20.5 20.5 20.4 20.4 20.3 20.3 20.2 20.1 20.0 20.7 20.7 20.8 20.9 20.9 20.9 20.9 21.0 21.0 21.0 20.9 20.8 20.8 20.7 20.7 20.6 20.6 20.6 20.5 20.5 20.4 20.4 20.3 20.2 20.1 20.0 20.8 20.8 20.9 21.0 21.1 21.1 21.1 21.2 21.2 21.1 21.0 20.9 20.9 20.8 20.8 20.7 20.7 20.6 20.6 20.5 20.5 20.4 20.3 20.2 20.1 20.0 20.9 21.0 21.1 21.2 21.3 21.4 21.4 21.4 21.4 21.3 21.2 21.1 21.0 21.0 20.9 20.8 20.8 20.7 20.6 20.6 20.5 20.4 20.3 20.2 20.1 20.0 21.0 21.1 21.3 21.4 21.5 21.6 21.7 21.7 21.6 21.5 21.3 21.2 21.2 21.1 21.0 20.9 20.8 20.8 20.7 20.6 20.5 20.4 20.3 20.2 20.1 20.0 21.2 21.3 21.4 21.6 21.8 21.9 22.0 22.0 21.9 21.7 21.5 21.4 21.3 21.2 21.1 21.0 20.9 20.9 20.8 20.7 20.6 20.4 20.3 20.2 20.1 20.0 21.3 21.5 21.7 21.9 22.1 22.3 22.4 22.4 22.2 22.0 21.8 21.7 21.5 21.4 21.3 21.2 21.0 21.0 20.9 20.7 20.6 20.5 20.3 20.2 20.1 20.0 21.5 21.7 21.9 22.2 22.5 22.7 22.9 22.8 22.5 22.3 22.1 21.9 21.8 21.6 21.4 21.3 21.2 21.0 20.9 20.8 20.6 20.5 20.3 20.2 20.1 20.0 21.8 22.0 22.3 22.6 22.9 23.2 23.5 23.3 23.0 22.6 22.4 22.2 22.0 21.8 21.6 21.4 21.3 21.1 21.0 20.8 20.6 20.4 20.3 20.2 20.1 20.0 22.1 22.3 22.6 23.1 23.4 23.9 24.2 23.9 23.5 23.1 22.8 22.5 22.3 22.0 21.8 21.6 21.4 21.2 21.0 20.8 20.6 20.4 20.3 20.2 20.1 20.0 22.4 22.7 23.1 23.6 24.1 24.8 25.1 24.6 24.1 23.6 23.2 22.9 22.5 22.2 22.0 21.7 21.5 21.3 21.1 20.9 20.7 20.5 20.3 20.2 20.1 20.0 22.7 23.2 23.8 25.1 25.8 25.9 26.2 25.8 25.1 24.3 23.8 23.3 22.9 22.5 22.2 21.9 21.6 21.4 21.2 20.9 20.7 20.5 20.3 20.2 20.1 20.1 23.1 23.7 24.6 28.1 29.4 28.0 28.5 28.1 26.6 25.2 24.4 23.8 23.2 22.8 22.4 22.1 21.8 21.6 21.3 21.0 20.8 20.5 20.4 20.2 20.1 20.1 23.8 24.5 25.6 32.8 36.8 35.8 36.7 35.2 32.1 27.8 25.4 24.5 23.8 23.2 22.8 22.4 22.1 21.7 21.4 21.1 20.8 20.5 20.4 20.2 20.1 20.1 24.7 25.7 27.4 34.8 46.2 90.0 126.4 83.7 43.9 31.6 26.7 25.4 24.4 23.7 23.1 22.7 22.2 21.8 21.4 21.1 20.8 20.5 20.4 20.2 20.1 20.1 25.4 26.8 29.1 36.1 73.7 239.7 361.9 193.0 76.9 42.3 27.8 25.9 24.8 23.9 23.3 22.7 22.2 21.8 21.4 21.0 20.7 20.5 20.3 20.2 20.1 20.1 25.4 26.6 28.6 39.0 110.0 264.7 331.8 200.9 91.6 47.7 27.8 25.7 24.7 23.9 23.1 22.7 22.2 21.8 21.4 21.0 20.7 20.5 20.4 20.2 20.1 20.1 24.7 25.4 27.2 34.9 73.0 103.2 102.4 88.6 56.7 35.5 26.2 24.8 24.1 23.5 22.9 22.5 22.1 21.7 21.4 21.1 20.8 20.5 20.4 20.2 20.1 20.1 23.8 24.5 25.8 28.1 31.0 33.1 33.1 32.5 29.6 26.0 24.7 24.0 23.5 23.0 22.6 22.2 21.9 21.6 21.3 21.0 20.8 20.5 20.4 20.2 20.1 20.1 22.5 23.8 24.5 25.5 26.9 28.0 27.8 26.8 25.7 24.7 24.1 23.5 23.0 22.6 22.2 21.9 21.7 21.4 21.2 20.9 20.7 20.5 20.3 20.2 20.1 20.1 20.0 20.0 20.0 20.0 20.0 20.0 20.0 20.0 20.0 20.0 20.0 20.0 20.0 20.0 20.0 20.0 20.0 20.0 20.0 20.0 20.0 20.0 20.1 20.1 20.1 20.1 20.0 20.0 20.1 20.1 20.1 20.1 20.1 20.1 20.1 20.1 20.1 20.1 20.0 20.0 20.1 20.1 20.1 20.1 20.1 20.1 20.1 20.1 20.1 20.1 20.1 20.1 20.1 20.1 20.1 20.1 20.1 20.1 20.1 20.1 20.1 20.1 20.1 20.1 20.1 20.1 20.1 20.1 20.1 20.1 20.1 20.1 20.2 20.2 20.1 20.1 20.1 20.1 20.2 20.2 20.2 20.2 20.2 20.2 20.2 20.2 20.2 20.3 20.2 20.2 20.2 20.2 20.2 20.2 20.2 20.2 20.2 20.2 20.2 20.2 20.2 20.2 20.1 20.1 20.3 20.3 20.3 20.3 20.4 20.3 20.3 20.4 20.4 20.4 20.4 20.4 20.3 20.3 20.3 20.3 20.3 20.3 20.3 20.3 20.3 20.2 20.2 20.2 20.1 20.0 20.4 20.4 20.4 20.5 20.5 20.5 20.5 20.6 20.6 20.6 20.5 20.5 20.5 20.4 20.4 20.4 20.4 20.4 20.3 20.3 20.3 20.3 20.2 20.2 20.1 20.0 20.5 20.5 20.6 20.7 20.7 20.7 20.7 20.8 20.8 20.8 20.7 20.6 20.6 20.5 20.5 20.5 20.5 20.4 20.4 20.3 20.3 20.3 20.2 20.2 20.1 20.0 20.6 20.7 20.7 20.8 20.9 20.9 20.9 21.0 21.0 20.9 20.8 20.7 20.7 20.6 20.6 20.6 20.5 20.5 20.4 20.4 20.4 20.3 20.2 20.2 20.1 20.0 20.7 20.8 20.9 21.0 21.1 21.1 21.1 21.2 21.2 21.1 21.0 20.9 20.8 20.8 20.7 20.6 20.6 20.5 20.5 20.4 20.4 20.3 20.3 20.2 20.1 20.0 20.8 20.9 21.0 21.2 21.3 21.4 21.4 21.4 21.4 21.3 21.1 21.0 20.9 20.9 20.8 20.7 20.7 20.6 20.5 20.5 20.4 20.4 20.3 20.2 20.1 20.0 21.0 21.1 21.2 21.4 21.6 21.7 21.7 21.7 21.6 21.5 21.3 21.2 21.1 21.0 20.9 20.9 20.8 20.7 20.6 20.6 20.5 20.4 20.3 20.2 20.1 20.0 21.1 21.3 21.5 21.7 21.9 22.0 22.1 22.1 21.9 21.7 21.5 21.4 21.3 21.2 21.1 21.0 20.9 20.8 20.7 20.6 20.5 20.4 20.3 20.2 20.1 20.0 21.3 21.5 21.7 22.0 22.3 22.4 22.6 22.5 22.3 22.0 21.8 21.7 21.5 21.4 21.2 21.1 21.0 20.9 20.8 20.7 20.6 20.4 20.3 20.2 20.1 20.0 21.6 21.8 22.1 22.4 22.7 23.0 23.2 23.0 22.7 22.4 22.2 22.0 21.8 21.6 21.4 21.3 21.1 21.0 20.9 20.7 20.6 20.4 20.3 20.1 20.1 20.0 21.8 22.1 22.4 22.9 23.3 23.7 23.9 23.7 23.2 22.8 22.6 22.3 22.1 21.8 21.6 21.4 21.2 21.1 20.9 20.8 20.6 20.4 20.3 20.1 20.1 20.0 22.2 22.5 22.9 23.5 24.0 24.5 24.7 24.3 23.8 23.4 23.0 22.7 22.4 22.1 21.8 21.6 21.4 21.2 21.0 20.8 20.6 20.4 20.3 20.2 20.1 20.0 22.5 23.0 23.7 24.4 25.0 25.9 26.1 25.2 24.6 24.0 23.6 23.1 22.7 22.4 22.0 21.7 21.5 21.3 21.1 20.8 20.6 20.4 20.3 20.2 20.1 20.0 23.0 23.6 24.6 27.1 28.6 28.4 28.4 27.3 25.8 24.8 24.2 23.6 23.1 22.7 22.3 21.9 21.6 21.4 21.2 20.9 20.7 20.5 20.3 20.2 20.1 20.0 23.5 24.4 27.3 36.7 40.6 35.6 33.3 31.0 28.0 26.1 25.0 24.2 23.6 23.0 22.6 22.2 21.9 21.6 21.3 21.0 20.8 20.5 20.3 20.2 20.1 20.1 24.2 25.9 30.9 50.1 61.2 63.9 59.9 43.6 35.1 29.2 26.0 25.0 24.2 23.5 23.0 22.5 22.1 21.8 21.4 21.1 20.8 20.5 20.3 20.2 20.1 20.1 25.3 27.7 33.5 55.8 90.3 163.3 199.2 132.8 66.6 37.2 27.6 26.0 24.9 24.1 23.4 22.8 22.3 21.9 21.5 21.1 20.8 20.5 20.3 20.2 20.1 20.0 26.2 29.4 35.9 62.8 147.8 288.3 375.8 298.5 144.2 53.7 29.4 26.7 25.4 24.4 23.6 23.0 22.4 21.9 21.5 21.1 20.8 20.5 20.3 20.2 20.1 20.0 26.2 29.2 34.7 62.4 175.9 302.2 362.5 318.7 180.5 70.6 29.8 26.5 25.2 24.3 23.5 22.9 22.4 21.9 21.5 21.1 20.8 20.5 20.3 20.2 20.1 20.0 25.1 26.9 29.9 44.3 102.8 160.6 173.0 151.8 106.5 56.1 27.7 25.4 24.5 23.8 23.1 22.6 22.2 21.8 21.5 21.1 20.8 20.5 20.3 20.2 20.1 20.1 24.2 25.1 26.5 30.2 35.6 43.7 44.7 40.2 37.9 30.8 25.5 24.5 23.8 23.2 22.7 22.3 22.0 21.7 21.4 21.0 20.8 20.5 20.3 20.2 20.1 20.1 22.8 24.3 25.1 26.2 28.6 31.0 30.2 28.0 26.7 25.5 24.7 24.0 23.4 22.8 22.4 22.0 21.7 21.4 21.2 20.9 20.7 20.5 20.3 20.2 20.1 20.1 20.0 20.0 20.0 20.0 20.0 20.0 20.0 20.0 20.0 20.0 20.0 20.0 20.0 20.0 20.0 20.0 20.0 20.0 20.0 20.0 20.0 20.0 20.0 20.1 20.1 20.1 20.0 20.0 20.1 20.1 20.1 20.1 20.1 20.1 20.1 20.1 20.1 20.1 20.0 20.0 20.1 20.1 20.1 20.1 20.1 20.1 20.1 20.1 20.1 20.1 20.1 20.1 20.1 20.1 20.1 20.1 20.1 20.1 20.1 20.1 20.1 20.1 20.1 20.1 20.1 20.1 20.1 20.1 20.1 20.1 20.1 20.1 20.1 20.1 20.1 20.1 20.1 20.1 20.2 20.2 20.2 20.2 20.2 20.2 20.2 20.2 20.3 20.3 20.3 20.2 20.2 20.2 20.2 20.2 20.2 20.2 20.2 20.2 20.2 20.2 20.2 20.1 20.1 20.1 20.3 20.3 20.3 20.4 20.4 20.4 20.4 20.4 20.4 20.4 20.4 20.4 20.3 20.3 20.3 20.3 20.3 20.3 20.3 20.2 20.2 20.2 20.2 20.1 20.1 20.0 20.4 20.4 20.5 20.5 20.5 20.5 20.5 20.6 20.6 20.6 20.5 20.5 20.5 20.4 20.4 20.4 20.4 20.3 20.3 20.3 20.3 20.2 20.2 20.1 20.1 20.0 20.5 20.5 20.6 20.7 20.7 20.7 20.7 20.8 20.8 20.8 20.7 20.6 20.6 20.5 20.5 20.5 20.4 20.4 20.4 20.3 20.3 20.3 20.2 20.1 20.1 20.0 20.6 20.7 20.8 20.8 20.9 20.9 21.0 21.0 21.0 20.9 20.8 20.7 20.7 20.6 20.6 20.5 20.5 20.5 20.4 20.4 20.3 20.3 20.2 20.1 20.1 20.0 20.7 20.8 20.9 21.0 21.1 21.1 21.2 21.2 21.2 21.1 21.0 20.9 20.8 20.7 20.7 20.6 20.6 20.5 20.5 20.4 20.4 20.3 20.2 20.1 20.1 20.0 20.8 20.9 21.1 21.2 21.3 21.4 21.5 21.5 21.4 21.3 21.1 21.0 21.0 20.9 20.8 20.7 20.7 20.6 20.5 20.5 20.4 20.3 20.2 20.1 20.1 20.0 21.0 21.1 21.3 21.4 21.6 21.7 21.8 21.8 21.7 21.5 21.3 21.2 21.1 21.0 20.9 20.8 20.8 20.7 20.6 20.5 20.5 20.4 20.3 20.2 20.1 20.0 21.2 21.3 21.5 21.7 21.9 22.1 22.2 22.2 22.0 21.8 21.6 21.5 21.3 21.2 21.1 21.0 20.9 20.8 20.7 20.6 20.5 20.4 20.3 20.2 20.1 20.0 21.3 21.5 21.8 22.1 22.3 22.5 22.7 22.7 22.4 22.1 21.9 21.7 21.6 21.4 21.3 21.1 21.0 20.9 20.8 20.7 20.5 20.4 20.3 20.2 20.1 20.0 21.6 21.8 22.1 22.5 22.9 23.1 23.4 23.3 22.9 22.5 22.3 22.1 21.8 21.6 21.5 21.3 21.1 21.0 20.8 20.7 20.6 20.4 20.3 20.1 20.1 20.0 21.9 22.1 22.5 23.0 23.5 23.8 24.1 24.0 23.4 23.0 22.7 22.4 22.2 21.9 21.7 21.4 21.2 21.1 20.9 20.8 20.6 20.4 20.3 20.1 20.1 20.0 22.2 22.7 23.2 23.8 24.2 24.7 25.1 24.8 24.2 23.7 23.3 22.9 22.5 22.2 21.9 21.6 21.4 21.2 21.0 20.8 20.6 20.4 20.3 20.2 20.1 20.0 22.6 23.2 24.3 25.2 25.6 26.6 27.1 26.3 25.2 24.5 23.9 23.4 22.9 22.5 22.1 21.8 21.5 21.3 21.1 20.9 20.7 20.5 20.3 20.2 20.1 20.0 23.1 23.9 26.3 30.0 31.0 30.8 31.1 30.1 27.7 25.5 24.7 24.0 23.4 22.9 22.4 22.0 21.7 21.4 21.2 20.9 20.7 20.5 20.3 20.2 20.1 20.0 24.0 26.6 39.7 56.5 53.9 43.0 39.7 36.5 31.4 27.5 25.6 24.7 23.9 23.3 22.7 22.3 21.9 21.6 21.3 21.1 20.8 20.6 20.4 20.2 20.1 20.1 25.8 36.9 66.3 95.9 90.7 80.7 74.3 53.7 39.2 31.0 26.9 25.6 24.7 23.8 23.2 22.7 22.2 21.8 21.5 21.2 20.9 20.6 20.4 20.2 20.1 20.1 29.6 50.7 83.7 120.7 146.2 188.1 204.2 148.8 86.0 44.1 29.1 26.8 25.5 24.5 23.6 23.0 22.4 22.0 21.6 21.2 20.9 20.6 20.4 20.2 20.1 20.0 33.1 57.0 84.8 137.6 230.9 328.2 373.4 321.9 178.7 59.8 31.5 27.8 26.1 24.9 23.9 23.2 22.5 22.0 21.6 21.2 20.8 20.6 20.3 20.2 20.1 20.0 30.9 47.0 64.7 110.4 223.1 346.5 402.1 370.1 231.2 82.4 32.2 27.6 25.9 24.7 23.8 23.1 22.5 22.0 21.6 21.2 20.8 20.6 20.3 20.2 20.1 20.0 26.4 32.0 38.3 55.4 107.1 186.8 222.3 206.4 152.9 70.0 29.6 26.2 25.0 24.1 23.4 22.8 22.3 21.9 21.5 21.2 20.8 20.6 20.4 20.2 20.1 20.1 24.5 26.1 28.5 32.9 40.3 54.0 58.9 59.3 51.8 33.4 26.3 25.1 24.2 23.5 22.9 22.4 22.1 21.7 21.4 21.1 20.8 20.5 20.3 20.2 20.1 20.1 23.0 24.6 25.9 28.0 31.0 33.7 32.8 30.2 28.1 26.2 25.2 24.4 23.7 23.1 22.6 22.1 21.8 21.5 21.2 21.0 20.7 20.5 20.3 20.2 20.1 20.1 20.0 20.0 20.0 20.0 20.0 20.0 20.0 20.0 20.0 20.0 20.0 20.0 20.0 20.0 20.0 20.0 20.0 20.0 20.0 20.0 20.0 20.0 20.1 20.1 20.1 20.1 20.0 20.1 20.1 20.1 20.1 20.1 20.1 20.1 20.1 20.1 20.1 20.1 20.1 20.1 20.1 20.1 20.1 20.1 20.1 20.1 20.1 20.1 20.1 20.1 20.1 20.1 20.1 20.1 20.1 20.1 20.1 20.1 20.1 20.1 20.2 20.2 20.2 20.1 20.1 20.1 20.1 20.2 20.2 20.2 20.2 20.2 20.2 20.2 20.1 20.1 20.1 20.1 20.2 20.2 20.2 20.3 20.3 20.2 20.2 20.3 20.3 20.3 20.3 20.3 20.3 20.3 20.3 20.3 20.3 20.3 20.2 20.2 20.2 20.2 20.2 20.2 20.1 20.1 20.3 20.3 20.4 20.4 20.4 20.4 20.4 20.4 20.5 20.5 20.4 20.4 20.4 20.4 20.4 20.4 20.3 20.3 20.3 20.3 20.3 20.2 20.2 20.2 20.1 20.0 20.4 20.5 20.5 20.6 20.6 20.6 20.6 20.7 20.7 20.7 20.6 20.5 20.5 20.5 20.5 20.5 20.4 20.4 20.4 20.3 20.3 20.3 20.2 20.2 20.1 20.0 20.5 20.6 20.7 20.8 20.8 20.8 20.8 20.9 20.9 20.8 20.7 20.7 20.6 20.6 20.6 20.5 20.5 20.4 20.4 20.4 20.3 20.3 20.2 20.2 20.1 20.0 20.7 20.7 20.8 20.9 21.0 21.0 21.0 21.1 21.1 21.0 20.9 20.8 20.7 20.7 20.7 20.6 20.6 20.5 20.5 20.4 20.4 20.3 20.3 20.2 20.1 20.0 20.8 20.9 21.0 21.1 21.2 21.2 21.3 21.3 21.3 21.2 21.0 20.9 20.9 20.8 20.8 20.7 20.6 20.6 20.5 20.5 20.4 20.4 20.3 20.2 20.1 20.0 20.9 21.0 21.1 21.3 21.4 21.4 21.5 21.6 21.5 21.4 21.2 21.1 21.0 21.0 20.9 20.8 20.7 20.7 20.6 20.5 20.5 20.4 20.3 20.2 20.1 20.0 21.0 21.2 21.3 21.5 21.6 21.7 21.9 21.9 21.8 21.6 21.4 21.3 21.2 21.1 21.0 20.9 20.8 20.7 20.7 20.6 20.5 20.4 20.3 20.2 20.1 20.0 21.2 21.3 21.6 21.8 21.9 22.1 22.3 22.3 22.1 21.9 21.7 21.5 21.4 21.3 21.2 21.1 20.9 20.8 20.7 20.6 20.6 20.4 20.3 20.2 20.1 20.0 21.4 21.6 21.8 22.1 22.3 22.6 22.8 22.8 22.5 22.2 22.0 21.8 21.7 21.5 21.4 21.2 21.1 20.9 20.8 20.7 20.6 20.5 20.3 20.2 20.1 20.0 21.6 21.8 22.1 22.5 22.8 23.1 23.4 23.4 23.0 22.6 22.4 22.2 22.0 21.8 21.6 21.4 21.2 21.1 20.9 20.8 20.6 20.5 20.3 20.2 20.1 20.0 21.9 22.1 22.5 23.0 23.3 23.7 24.1 24.1 23.5 23.1 22.8 22.5 22.3 22.0 21.8 21.6 21.3 21.2 21.0 20.8 20.7 20.5 20.3 20.2 20.1 20.0 22.2 22.7 23.4 23.8 24.1 24.6 25.1 25.0 24.4 23.8 23.4 23.0 22.6 22.3 22.0 21.7 21.5 21.3 21.1 20.9 20.7 20.5 20.3 20.2 20.1 20.0 22.6 23.6 25.0 25.6 25.5 26.2 27.1 27.0 25.7 24.6 24.0 23.5 23.1 22.6 22.3 21.9 21.6 21.4 21.2 21.0 20.7 20.5 20.3 20.2 20.1 20.0 23.3 25.2 28.9 32.1 30.0 29.8 33.1 34.5 31.3 26.0 24.8 24.1 23.5 23.0 22.5 22.2 21.8 21.5 21.3 21.1 20.8 20.6 20.4 20.2 20.1 20.0 24.8 36.3 58.1 70.8 52.4 40.3 47.9 49.9 42.3 29.7 26.0 24.9 24.1 23.4 22.9 22.4 22.1 21.8 21.5 21.2 20.9 20.6 20.4 20.2 20.1 20.1 34.5 71.8 120.1 134.6 88.2 62.8 77.4 70.4 51.3 33.9 27.5 25.9 24.9 24.0 23.4 22.8 22.4 22.0 21.6 21.3 21.0 20.7 20.4 20.2 20.1 20.1 41.4 100.9 167.6 187.2 135.0 124.8 164.2 146.2 94.9 46.6 29.9 27.4 25.9 24.7 23.9 23.2 22.6 22.1 21.7 21.3 21.0 20.7 20.4 20.2 20.1 20.1 39.4 96.5 168.8 217.4 195.5 234.2 317.7 284.8 165.9 57.1 32.1 28.6 26.5 25.1 24.2 23.4 22.7 22.2 21.7 21.3 21.0 20.6 20.4 20.2 20.1 20.1 35.1 71.7 119.7 163.5 173.9 268.7 379.6 346.8 208.8 69.6 32.4 28.2 26.3 25.0 24.0 23.3 22.7 22.2 21.7 21.3 21.0 20.6 20.4 20.2 20.1 20.1 28.4 44.8 62.0 72.3 86.7 156.2 219.8 214.5 146.5 58.5 29.7 26.6 25.4 24.3 23.6 23.0 22.5 22.0 21.7 21.3 21.0 20.7 20.4 20.2 20.1 20.1 24.9 31.2 37.0 38.4 44.0 54.2 60.0 63.8 50.7 30.6 26.6 25.3 24.4 23.7 23.1 22.6 22.2 21.9 21.5 21.2 20.9 20.6 20.4 20.2 20.1 20.1 23.0 26.1 28.6 30.6 32.6 33.6 32.9 31.0 28.5 26.4 25.4 24.5 23.8 23.2 22.7 22.3 21.9 21.6 21.4 21.1 20.8 20.6 20.4 20.2 20.1 20.1 20.0 20.0 20.0 20.0 20.0 20.0 20.0 20.0 20.0 20.0 20.0 20.0 20.0 20.0 20.0 20.0 20.0 20.0 20.0 20.0 20.0 20.1 20.1 20.1 20.1 20.1 20.1 20.1 20.1 20.1 20.1 20.1 20.1 20.1 20.1 20.1 20.1 20.1 20.1 20.1 20.1 20.1 20.1 20.1 20.1 20.1 20.1 20.1 20.1 20.1 20.1 20.1 20.1 20.1 20.1 20.2 20.1 20.1 20.1 20.2 20.2 20.2 20.2 20.2 20.2 20.2 20.2 20.2 20.2 20.2 20.2 20.2 20.2 20.2 20.2 20.2 20.1 20.1 20.2 20.3 20.3 20.3 20.3 20.3 20.3 20.3 20.3 20.4 20.3 20.3 20.3 20.3 20.3 20.3 20.3 20.3 20.3 20.3 20.3 20.2 20.2 20.2 20.1 20.1 20.4 20.4 20.4 20.5 20.5 20.4 20.5 20.5 20.5 20.5 20.5 20.5 20.4 20.4 20.4 20.4 20.4 20.4 20.4 20.3 20.3 20.3 20.3 20.2 20.1 20.1 20.5 20.5 20.6 20.6 20.6 20.6 20.7 20.7 20.8 20.7 20.7 20.6 20.6 20.6 20.5 20.5 20.5 20.5 20.4 20.4 20.3 20.3 20.3 20.2 20.1 20.1 20.6 20.7 20.8 20.8 20.8 20.8 20.9 20.9 21.0 20.9 20.8 20.7 20.7 20.7 20.6 20.6 20.6 20.5 20.5 20.4 20.4 20.4 20.3 20.2 20.1 20.0 20.7 20.8 20.9 21.0 21.0 21.0 21.1 21.2 21.2 21.1 21.0 20.9 20.8 20.8 20.7 20.7 20.6 20.6 20.5 20.5 20.4 20.4 20.3 20.2 20.1 20.0 20.8 20.9 21.0 21.2 21.2 21.2 21.3 21.4 21.4 21.3 21.1 21.0 20.9 20.9 20.8 20.8 20.7 20.7 20.6 20.5 20.5 20.4 20.3 20.2 20.1 20.0 20.9 21.0 21.2 21.3 21.4 21.5 21.6 21.7 21.6 21.4 21.3 21.2 21.1 21.0 21.0 20.9 20.8 20.7 20.7 20.6 20.5 20.5 20.3 20.2 20.1 20.0 21.0 21.2 21.4 21.5 21.6 21.8 21.9 22.0 21.9 21.6 21.5 21.4 21.3 21.2 21.1 21.0 20.9 20.8 20.7 20.7 20.6 20.5 20.4 20.2 20.1 20.0 21.2 21.4 21.6 21.8 21.9 22.1 22.3 22.4 22.2 21.9 21.7 21.6 21.5 21.4 21.3 21.1 21.0 20.9 20.8 20.7 20.6 20.5 20.4 20.2 20.1 20.0 21.4 21.6 21.8 22.1 22.3 22.5 22.8 22.8 22.5 22.2 22.0 21.9 21.7 21.6 21.4 21.3 21.2 21.0 20.9 20.8 20.7 20.5 20.4 20.2 20.1 20.0 21.5 21.8 22.1 22.4 22.6 23.0 23.4 23.4 23.0 22.6 22.4 22.2 22.0 21.8 21.6 21.5 21.3 21.2 21.0 20.9 20.7 20.6 20.4 20.2 20.1 20.0 21.8 22.1 22.5 22.8 23.1 23.6 24.0 24.0 23.5 23.1 22.8 22.6 22.3 22.1 21.9 21.6 21.4 21.3 21.1 21.0 20.8 20.6 20.4 20.2 20.1 20.0 22.1 22.6 23.3 23.6 23.8 24.3 24.9 24.9 24.3 23.8 23.3 23.0 22.7 22.4 22.1 21.8 21.6 21.4 21.2 21.0 20.8 20.6 20.4 20.2 20.1 20.0 23.0 23.8 25.1 25.6 25.2 25.6 26.6 26.7 25.6 24.6 24.0 23.5 23.1 22.7 22.3 22.0 21.7 21.5 21.3 21.1 20.8 20.6 20.4 20.2 20.1 20.0 24.8 26.4 29.9 29.9 27.8 30.2 33.3 36.0 32.4 25.8 24.7 24.1 23.5 23.0 22.6 22.2 21.9 21.7 21.4 21.2 20.9 20.7 20.4 20.2 20.1 20.1 27.9 43.7 64.4 58.2 38.2 38.7 49.4 59.5 49.9 29.6 25.8 24.8 24.1 23.5 23.0 22.5 22.2 21.9 21.6 21.3 21.0 20.8 20.5 20.3 20.1 20.1 53.9 107.9 144.6 112.2 56.0 54.0 78.1 88.0 65.1 34.4 27.5 25.8 24.9 24.1 23.4 22.9 22.5 22.1 21.8 21.4 21.1 20.8 20.5 20.3 20.1 20.1 77.6 161.0 216.7 163.0 83.8 97.2 140.5 145.8 97.3 43.0 29.5 27.4 25.9 24.7 24.0 23.3 22.7 22.3 21.9 21.5 21.1 20.8 20.5 20.3 20.1 20.1 69.8 148.9 225.6 187.7 121.6 177.5 250.2 226.6 127.3 46.0 30.8 28.5 26.6 25.2 24.2 23.5 22.8 22.3 21.9 21.5 21.1 20.7 20.5 20.2 20.1 20.1 58.5 111.6 164.5 141.0 104.2 185.4 273.5 249.2 139.0 45.2 30.2 28.1 26.5 25.0 24.1 23.4 22.8 22.3 21.9 21.5 21.1 20.7 20.5 20.3 20.1 20.1 46.1 71.7 89.4 73.3 60.1 101.8 146.1 147.1 97.0 39.3 28.0 26.6 25.6 24.4 23.6 23.1 22.6 22.2 21.8 21.5 21.1 20.8 20.5 20.3 20.1 20.1 31.3 41.5 48.8 46.7 45.0 46.2 46.5 44.5 36.7 28.5 26.2 25.3 24.5 23.7 23.2 22.8 22.3 22.0 21.7 21.4 21.1 20.8 20.5 20.3 20.1 20.1 23.8 28.0 31.3 33.1 33.4 32.1 31.1 29.7 27.6 26.1 25.2 24.4 23.8 23.2 22.8 22.4 22.0 21.8 21.5 21.2 21.0 20.7 20.5 20.3 20.1 20.1 20.0 20.0 20.0 20.0 20.0 20.0 20.0 20.0 20.0 20.0 20.0 20.0 20.0 20.0 20.0 20.0 20.0 20.0 20.0 20.1 20.1 20.1 20.1 20.1 20.1 20.1 20.1 20.1 20.1 20.1 20.1 20.1 20.1 20.1 20.1 20.1 20.1 20.1 20.1 20.1 20.1 20.1 20.1 20.1 20.1 20.1 20.1 20.1 20.1 20.2 20.1 20.1 20.1 20.1 20.2 20.2 20.2 20.1 20.1 20.2 20.2 20.2 20.2 20.2 20.2 20.2 20.2 20.2 20.2 20.2 20.2 20.2 20.2 20.2 20.2 20.2 20.2 20.1 20.2 20.3 20.3 20.3 20.3 20.3 20.3 20.3 20.4 20.4 20.4 20.4 20.3 20.3 20.3 20.4 20.4 20.4 20.4 20.3 20.3 20.3 20.3 20.2 20.2 20.1 20.4 20.4 20.5 20.5 20.5 20.5 20.5 20.5 20.6 20.6 20.6 20.5 20.5 20.5 20.5 20.5 20.5 20.5 20.4 20.4 20.4 20.3 20.3 20.3 20.1 20.1 20.5 20.6 20.6 20.7 20.7 20.6 20.7 20.7 20.8 20.8 20.7 20.7 20.6 20.6 20.6 20.6 20.5 20.5 20.5 20.4 20.4 20.4 20.3 20.3 20.1 20.1 20.6 20.7 20.8 20.8 20.8 20.8 20.9 21.0 21.0 21.0 20.9 20.8 20.7 20.7 20.7 20.6 20.6 20.6 20.5 20.5 20.4 20.4 20.4 20.3 20.1 20.1 20.7 20.8 20.9 21.0 21.0 21.0 21.1 21.2 21.2 21.1 21.0 20.9 20.8 20.8 20.8 20.7 20.7 20.6 20.6 20.5 20.5 20.5 20.4 20.3 20.1 20.1 20.8 20.9 21.0 21.1 21.2 21.2 21.3 21.4 21.4 21.3 21.1 21.0 20.9 20.9 20.9 20.8 20.8 20.7 20.6 20.6 20.5 20.5 20.4 20.3 20.1 20.1 20.9 21.0 21.2 21.3 21.4 21.4 21.5 21.6 21.6 21.4 21.3 21.1 21.1 21.0 21.0 20.9 20.9 20.8 20.7 20.7 20.6 20.5 20.4 20.3 20.1 20.1 21.0 21.2 21.3 21.5 21.6 21.7 21.9 21.9 21.8 21.6 21.4 21.3 21.3 21.2 21.1 21.0 20.9 20.9 20.8 20.7 20.7 20.6 20.4 20.3 20.1 20.0 21.1 21.3 21.5 21.7 21.8 22.0 22.2 22.3 22.1 21.9 21.7 21.5 21.5 21.4 21.3 21.2 21.1 21.0 20.9 20.8 20.7 20.6 20.4 20.3 20.1 20.0 21.3 21.5 21.7 21.9 22.1 22.4 22.7 22.7 22.4 22.2 22.0 21.8 21.7 21.6 21.4 21.3 21.2 21.1 21.0 20.9 20.8 20.6 20.4 20.3 20.1 20.0 21.4 21.7 22.0 22.2 22.4 22.8 23.2 23.2 22.9 22.5 22.3 22.1 22.0 21.8 21.6 21.5 21.3 21.2 21.1 20.9 20.8 20.6 20.4 20.2 20.1 20.0 21.7 22.0 22.3 22.6 22.9 23.4 23.9 23.9 23.4 23.0 22.7 22.5 22.2 22.0 21.8 21.6 21.5 21.3 21.2 21.0 20.8 20.6 20.4 20.2 20.1 20.0 22.0 22.5 23.0 23.3 23.6 24.2 24.8 24.7 24.1 23.6 23.2 22.9 22.6 22.3 22.0 21.8 21.6 21.4 21.2 21.1 20.9 20.7 20.4 20.2 20.1 20.1 23.2 23.7 24.6 25.1 25.0 25.5 26.4 26.3 25.2 24.3 23.8 23.4 23.0 22.6 22.3 22.0 21.7 21.5 21.3 21.1 20.9 20.7 20.5 20.3 20.1 20.1 27.0 26.8 27.3 26.7 28.2 30.7 31.6 33.3 30.1 25.2 24.4 23.9 23.4 22.9 22.5 22.2 21.9 21.7 21.5 21.3 21.0 20.8 20.5 20.3 20.1 20.1 35.0 45.5 50.0 35.8 31.5 37.1 42.6 55.9 46.7 27.6 25.5 24.6 23.9 23.4 22.9 22.5 22.2 21.9 21.7 21.4 21.1 20.8 20.5 20.3 20.1 20.1 75.0 122.3 113.8 57.5 38.7 49.2 67.4 92.5 68.3 31.8 27.1 25.6 24.7 24.0 23.4 22.9 22.5 22.1 21.8 21.5 21.2 20.9 20.6 20.3 20.1 20.1 131.7 204.3 176.3 87.7 76.1 103.6 133.3 149.7 94.1 38.5 28.8 27.0 25.7 24.7 23.9 23.3 22.7 22.3 21.9 21.6 21.2 20.8 20.5 20.3 20.1 20.1 139.1 206.4 186.0 107.8 129.4 178.9 200.9 181.5 95.2 38.9 29.5 27.9 26.5 25.1 24.1 23.4 22.8 22.3 21.9 21.5 21.2 20.8 20.5 20.3 20.1 20.1 116.7 159.1 140.2 82.8 108.8 148.4 159.2 150.3 84.1 34.6 28.8 27.7 26.5 25.1 24.0 23.4 22.8 22.3 21.9 21.5 21.2 20.8 20.5 20.3 20.1 20.1 91.0 104.5 89.4 59.5 58.4 65.6 69.4 82.8 62.4 31.7 27.3 26.5 25.6 24.5 23.6 23.1 22.7 22.2 21.9 21.6 21.2 20.9 20.5 20.3 20.1 20.1 51.9 56.6 56.7 53.2 44.7 38.5 35.7 35.2 32.2 27.8 25.9 25.1 24.4 23.7 23.1 22.7 22.4 22.1 21.8 21.5 21.2 20.8 20.5 20.3 20.1 20.1 27.6 32.2 34.1 35.6 33.8 31.0 29.6 28.5 27.1 25.9 25.0 24.2 23.6 23.1 22.7 22.3 22.0 21.8 21.6 21.3 21.1 20.8 20.5 20.3 20.1 20.1 20.0 20.0 20.0 20.0 20.0 20.0 20.0 20.0 20.0 20.0 20.0 20.0 20.0 20.0 20.0 20.0 20.0 20.1 20.1 20.1 20.1 20.1 20.1 20.1 20.2 20.2 20.1 20.1 20.1 20.1 20.1 20.1 20.1 20.1 20.1 20.1 20.1 20.1 20.1 20.1 20.1 20.1 20.1 20.1 20.1 20.1 20.2 20.2 20.2 20.2 20.2 20.2 20.1 20.1 20.2 20.2 20.2 20.1 20.1 20.2 20.2 20.2 20.2 20.2 20.2 20.2 20.2 20.2 20.3 20.3 20.3 20.3 20.3 20.3 20.3 20.3 20.2 20.1 20.3 20.3 20.3 20.3 20.3 20.3 20.3 20.3 20.4 20.4 20.4 20.4 20.4 20.4 20.4 20.4 20.4 20.4 20.4 20.4 20.4 20.3 20.3 20.3 20.2 20.1 20.4 20.4 20.4 20.5 20.5 20.5 20.5 20.5 20.6 20.6 20.6 20.5 20.5 20.5 20.5 20.5 20.5 20.5 20.5 20.4 20.4 20.4 20.3 20.3 20.2 20.1 20.5 20.6 20.6 20.6 20.6 20.6 20.7 20.7 20.8 20.8 20.7 20.7 20.6 20.6 20.6 20.6 20.6 20.5 20.5 20.5 20.4 20.4 20.4 20.3 20.2 20.1 20.6 20.7 20.8 20.8 20.8 20.8 20.8 20.9 21.0 21.0 20.9 20.8 20.7 20.7 20.7 20.6 20.6 20.6 20.5 20.5 20.5 20.4 20.4 20.3 20.2 20.1 20.7 20.8 20.9 20.9 21.0 21.0 21.0 21.1 21.2 21.1 21.0 20.9 20.8 20.8 20.7 20.7 20.7 20.6 20.6 20.6 20.5 20.5 20.4 20.3 20.1 20.1 20.8 20.9 21.0 21.1 21.1 21.1 21.2 21.3 21.3 21.2 21.1 21.0 20.9 20.9 20.8 20.8 20.7 20.7 20.6 20.6 20.6 20.5 20.4 20.3 20.1 20.1 20.9 21.0 21.1 21.2 21.3 21.3 21.5 21.5 21.5 21.4 21.2 21.1 21.0 21.0 20.9 20.9 20.8 20.8 20.7 20.7 20.6 20.6 20.5 20.3 20.1 20.1 20.9 21.1 21.2 21.4 21.5 21.6 21.7 21.8 21.7 21.5 21.4 21.3 21.2 21.1 21.1 21.0 20.9 20.8 20.8 20.7 20.7 20.6 20.5 20.3 20.1 20.1 21.1 21.2 21.4 21.6 21.7 21.9 22.1 22.2 22.0 21.8 21.6 21.5 21.4 21.3 21.2 21.1 21.0 20.9 20.9 20.8 20.7 20.6 20.5 20.3 20.1 20.1 21.2 21.4 21.6 21.8 22.0 22.3 22.5 22.5 22.3 22.0 21.8 21.7 21.6 21.5 21.4 21.2 21.1 21.0 20.9 20.9 20.8 20.6 20.5 20.3 20.1 20.1 21.3 21.6 21.8 22.0 22.2 22.6 23.0 23.0 22.7 22.4 22.1 22.0 21.8 21.7 21.5 21.4 21.3 21.1 21.0 20.9 20.8 20.7 20.5 20.3 20.1 20.1 21.6 21.8 22.1 22.3 22.7 23.2 23.7 23.6 23.2 22.8 22.5 22.3 22.1 21.9 21.7 21.5 21.4 21.2 21.1 21.0 20.8 20.7 20.5 20.3 20.1 20.1 22.1 22.4 22.6 22.9 23.4 24.1 24.5 24.3 23.8 23.3 23.0 22.7 22.4 22.1 21.9 21.7 21.5 21.3 21.2 21.0 20.9 20.7 20.5 20.3 20.1 20.1 23.2 23.7 23.9 24.3 24.7 25.1 25.7 25.7 24.7 23.9 23.5 23.1 22.8 22.4 22.1 21.9 21.6 21.4 21.3 21.1 20.9 20.7 20.5 20.3 20.1 20.1 27.2 27.7 26.3 25.9 27.4 27.5 28.7 30.4 28.3 24.8 24.1 23.6 23.2 22.7 22.4 22.1 21.8 21.6 21.4 21.2 21.0 20.8 20.5 20.3 20.1 20.1 38.9 41.6 35.5 28.1 30.8 31.3 36.6 47.8 41.2 26.7 25.0 24.2 23.7 23.2 22.7 22.4 22.1 21.8 21.6 21.4 21.2 20.9 20.6 20.3 20.1 20.1 74.9 91.5 67.3 41.9 43.1 42.8 59.2 80.5 60.4 29.7 26.5 25.2 24.4 23.8 23.2 22.8 22.4 22.1 21.8 21.5 21.2 20.9 20.6 20.3 20.1 20.1 143.7 173.6 121.2 85.3 95.7 99.5 128.7 134.3 80.6 34.9 28.0 26.3 25.4 24.5 23.7 23.1 22.6 22.2 21.9 21.5 21.2 20.9 20.6 20.3 20.1 20.1 177.3 209.7 148.6 117.3 143.6 150.4 177.4 154.4 79.5 36.2 28.5 27.0 26.1 24.9 23.9 23.2 22.7 22.2 21.8 21.5 21.2 20.8 20.5 20.3 20.1 20.1 157.8 180.8 125.4 93.0 110.0 108.2 123.5 114.9 67.8 34.8 28.4 27.0 26.1 24.9 23.8 23.2 22.7 22.2 21.8 21.5 21.2 20.8 20.5 20.3 20.1 20.1 123.0 127.1 93.4 69.0 60.2 50.1 55.6 69.3 57.9 34.6 27.9 26.1 25.4 24.4 23.5 22.9 22.6 22.2 21.8 21.6 21.2 20.9 20.6 20.3 20.1 20.1 74.1 73.9 64.9 57.1 42.9 34.2 33.7 39.6 39.6 31.6 26.3 24.8 24.2 23.5 23.0 22.6 22.3 22.0 21.8 21.5 21.2 20.9 20.6 20.3 20.1 20.1 37.3 43.7 41.1 37.0 32.0 29.2 28.7 28.6 28.8 27.2 24.8 23.9 23.4 22.9 22.5 22.2 21.9 21.7 21.5 21.3 21.1 20.8 20.5 20.3 20.1 20.1 20.0 20.0 20.0 20.0 20.0 20.0 20.0 20.0 20.0 20.0 20.0 20.0 20.0 20.0 20.0 20.0 20.1 20.1 20.1 20.1 20.1 20.1 20.1 20.1 20.2 20.2 20.1 20.1 20.1 20.1 20.1 20.1 20.1 20.1 20.1 20.1 20.1 20.1 20.1 20.1 20.1 20.1 20.1 20.1 20.1 20.2 20.2 20.2 20.2 20.2 20.2 20.2 20.1 20.1 20.1 20.2 20.1 20.1 20.1 20.2 20.2 20.2 20.2 20.2 20.2 20.2 20.2 20.2 20.3 20.3 20.3 20.3 20.3 20.3 20.3 20.3 20.2 20.2 20.2 20.3 20.3 20.3 20.3 20.3 20.3 20.3 20.4 20.4 20.4 20.4 20.4 20.4 20.4 20.4 20.4 20.4 20.4 20.4 20.4 20.3 20.3 20.3 20.2 20.1 20.4 20.4 20.4 20.4 20.4 20.4 20.4 20.5 20.6 20.6 20.6 20.5 20.5 20.5 20.5 20.5 20.5 20.5 20.4 20.4 20.4 20.4 20.3 20.3 20.2 20.1 20.5 20.5 20.6 20.6 20.6 20.6 20.6 20.7 20.8 20.8 20.7 20.6 20.6 20.6 20.6 20.6 20.5 20.5 20.5 20.4 20.4 20.4 20.4 20.3 20.2 20.1 20.6 20.6 20.7 20.7 20.8 20.8 20.8 20.9 20.9 20.9 20.8 20.7 20.7 20.6 20.6 20.6 20.6 20.5 20.5 20.5 20.5 20.4 20.4 20.3 20.2 20.1 20.7 20.7 20.8 20.9 20.9 20.9 20.9 21.0 21.1 21.0 20.9 20.8 20.7 20.7 20.7 20.7 20.6 20.6 20.6 20.5 20.5 20.5 20.4 20.3 20.2 20.1 20.7 20.8 20.9 21.0 21.0 21.0 21.1 21.2 21.2 21.1 21.0 20.9 20.8 20.8 20.8 20.7 20.7 20.7 20.6 20.6 20.5 20.5 20.4 20.3 20.1 20.1 20.8 20.9 21.0 21.1 21.2 21.2 21.3 21.4 21.4 21.3 21.1 21.0 21.0 20.9 20.9 20.8 20.8 20.7 20.7 20.6 20.6 20.5 20.5 20.3 20.1 20.1 20.9 21.0 21.1 21.2 21.3 21.4 21.6 21.6 21.6 21.4 21.3 21.2 21.1 21.0 21.0 20.9 20.9 20.8 20.7 20.7 20.6 20.6 20.5 20.3 20.1 20.1 21.0 21.2 21.3 21.4 21.5 21.7 21.9 21.9 21.8 21.6 21.5 21.3 21.3 21.2 21.1 21.0 20.9 20.9 20.8 20.7 20.7 20.6 20.5 20.3 20.1 20.1 21.1 21.3 21.4 21.6 21.8 22.0 22.3 22.3 22.1 21.9 21.7 21.6 21.5 21.4 21.2 21.1 21.0 21.0 20.9 20.8 20.7 20.6 20.5 20.3 20.1 20.1 21.2 21.4 21.6 21.8 22.0 22.4 22.7 22.8 22.5 22.2 22.0 21.8 21.7 21.5 21.4 21.3 21.2 21.0 21.0 20.9 20.8 20.6 20.5 20.3 20.1 20.1 21.8 21.9 21.9 22.1 22.