<?xml version="1.0"?>
<VTKFile type="PolyData" version="1.0" byte_order="LittleEndian" header_type="UInt64">
<PolyData>
<Piece NumberOfPoints="88" NumberOfVerts="0" NumberOfLines="0" NumberOfPolys="0">
    <Points>
        <DataArray type="Float32" NumberOfComponents="3" format="ascii">
        16.7890 15.9802 8.3940 16.9317 15.9560 8.3940 16.7354 15.9229 8.3940 15.8311 15.8501 8.3940 15.7235 15.8086 8.3940 16.1010 15.8152 8.3940 17.6515 15.7447 8.3940 17.8330 15.6384 8.3940 17.0844 15.6522 8.3940 16.1469 15.6502 8.3940 17.4326 15.6344 8.3940 17.3732 15.6108 8.3940 15.8442 15.6081 8.3940 16.3219 15.6213 8.3940 17.3922 15.5772 8.3940 16.4189 15.4969 8.3940 16.7354 15.5993 8.3940 18.0825 15.5141 8.3940 17.7793 15.5095 8.3940 15.6001 15.5227 8.3940 17.5005 15.5124 8.3940 17.0514 15.5205 8.3940 16.8828 15.5021 8.3940 18.2707 15.4290 8.3940 15.3435 15.4397 8.3940 17.1922 15.4929 8.3940 16.6321 15.4892 8.3940 15.7325 15.4632 8.3940 17.0993 15.4751 8.3940 17.0574 15.4799 8.3940 16.8235 15.4345 8.3940 17.2913 15.4306 8.3940 16.2330 15.4330 8.3940 16.8231 15.4284 8.3940 16.1186 15.4049 8.3940 17.1562 15.4052 8.3940 15.6230 19.2300 7.9126 17.1878 15.3461 8.3940 17.0154 15.3489 8.3940 18.2068 15.2925 8.3940 16.7483 15.3440 8.3940 17.2968 15.3227 8.3940 16.2304 15.3320 8.3940 17.1462 18.4575 7.2195 16.1307 18.9383 8.0003 17.1404 17.9193 7.2058 17.1380 17.0430 6.5583 16.1253 15.3231 8.3940 17.4911 15.3060 8.3940 17.1489 19.1892 7.0140 17.0123 17.9963 7.1549 16.3957 18.5185 7.6937 17.1176 16.6694 6.3120 16.8204 17.5936 7.0773 15.9810 18.2329 7.5554 17.8292 15.2670 8.3940 15.1747 15.2691 8.3940 17.0892 16.9940 6.4789 16.0323 17.9676 7.2504 17.5889 15.2828 8.3940 16.8998 15.3056 8.3940 17.2529 19.3836 7.2578 17.0828 17.8949 6.9777 17.9881 15.2561 8.3940 15.6997 18.6482 7.1391 16.5849 15.2930 8.3940 18.9573 15.2037 8.3940 17.3562 17.5527 6.6928 17.4125 15.2555 8.3940 15.3161 17.1359 5.4864 16.7141 15.2555 8.3940 15.7498 17.1908 6.2669 16.5761 17.9631 7.5429 16.9069 17.1776 6.5640 15.4073 15.2173 8.3940 16.7051 15.2475 8.3940 16.3685 16.9451 6.3672 16.3210 15.2331 8.3940 17.2801 17.3076 6.6731 15.7017 17.9511 7.0571 16.3697 17.8774 7.5125 15.5284 18.1305 6.9902 15.4034 15.1918 8.3940 18.2075 15.1880 8.3940 17.7825 15.1921 8.3940 15.8419 15.1955 8.3940 16.9482 15.1981 8.3940 15.9939 17.0862 6.5842 
        </DataArray>
    </Points>
    <PointData>
        <DataArray type="Float32" Name="tag" format="ascii">
            72307.0000 77383.0000 71579.0000 77399.0000 49155.0000 88727.0000 85251.0000 81735.0000 100479.0000 107555.0000 72331.0000 96679.0000 104935.0000 105603.0000 107423.0000 117311.0000 108255.0000 79967.0000 103019.0000 95295.0000 113487.0000 85955.0000 124183.0000 88559.0000 82543.0000 86979.0000 125603.0000 103031.0000 96571.0000 114927.0000 112647.0000 109119.0000 108451.0000 124747.0000 123131.0000 122503.0000 374191.0000 105795.0000 118095.0000 71627.0000 135891.0000 115919.0000 134059.0000 552099.0000 545291.0000 548655.0000 542811.0000 111067.0000 100215.0000 555859.0000 554051.0000 550331.0000 545363.0000 554087.0000 548599.0000 111903.0000 111871.0000 547535.0000 552559.0000 99327.0000 111467.0000 558411.0000 541039.0000 96771.0000 537683.0000 146323.0000 58875.0000 554243.0000 133483.0000 539151.0000 127259.0000 554299.0000 552115.0000 549331.0000 125771.0000 121643.0000 554659.0000 115667.0000 552295.0000 562163.0000 563879.0000 563743.0000 118843.0000 107339.0000 124927.0000 145459.0000 124791.0000 563251.0000 
         </DataArray>
    </PointData>
</Piece>
</PolyData>
</VTKFile>