<?xml version="1.0"?>
<VTKFile type="PolyData" version="1.0" byte_order="LittleEndian" header_type="UInt64">
<PolyData>
<Piece NumberOfPoints="2811" NumberOfVerts="0" NumberOfLines="0" NumberOfPolys="0">
    <Points>
        <DataArray type="Float32" NumberOfComponents="3" format="ascii">
        15.8111 7.0986 3.1002 18.3512 10.4736 2.8559 18.3586 10.4211 2.8485 18.7826 10.9242 2.1663 18.6084 10.7533 2.5987 16.6863 8.4950 1.7387 18.7059 10.3841 2.5012 16.3862 8.6051 1.6018 17.3203 9.1761 2.8956 18.7979 10.6691 2.4092 18.7044 10.7172 2.5027 16.5555 9.3687 0.7893 16.7822 8.6292 2.9997 18.7940 10.9684 1.9098 18.7813 10.9387 2.1946 16.8224 9.0052 2.1951 18.7796 10.9209 2.0474 18.8116 10.9842 1.7796 16.5191 8.4260 1.5739 16.3028 7.3900 3.0655 17.1011 8.3215 2.6482 15.8594 8.4966 2.3776 18.8358 10.4958 2.3713 17.3577 6.3100 2.7571 17.0739 4.6484 5.5970 18.7804 10.5293 2.4267 18.7305 10.3772 2.4766 18.7848 10.9821 2.1964 17.1779 6.1782 3.3016 18.8934 10.5063 2.3137 18.7627 10.3075 2.4444 15.5461 8.1774 3.3727 18.8229 10.9392 1.7136 16.1510 10.2443 0.9194 18.8102 10.2295 2.3969 16.4901 7.2886 3.2555 18.2975 10.2371 2.9096 18.2528 10.5232 2.9543 16.5291 6.8929 3.6166 18.7217 10.3841 2.4855 18.7813 10.8769 1.9601 15.4571 7.8023 4.4753 18.7908 10.7860 2.2094 16.2957 10.2914 1.2386 17.9861 10.1109 3.2210 15.4171 8.8424 3.0477 15.3009 10.2099 1.5473 17.7269 10.2001 3.4802 15.4403 10.0000 2.4402 18.1032 10.3759 3.1039 15.2670 9.2980 3.9110 15.8947 9.8439 2.0294 17.8125 10.2114 3.3946 18.1349 10.3197 3.0722 15.3680 10.3739 4.6632 18.1769 10.5450 3.0302 18.8289 10.8703 2.5366 17.5938 10.3117 3.6133 17.9468 10.1938 3.2603 18.8045 11.0332 1.9536 17.6510 10.2708 3.5561 18.2551 10.4643 2.9520 17.4708 10.2402 3.7363 18.2757 10.3699 2.9314 15.2679 9.4691 4.7764 17.6781 10.1498 3.5290 17.9036 10.4190 3.3035 17.9595 10.4227 3.2476 15.3317 10.2541 5.4886 18.5765 10.3664 2.6306 18.8922 10.5207 2.3149 18.6547 10.4604 2.5524 18.2925 10.5315 2.9147 17.4120 10.0000 0.9680 18.8098 10.7244 2.3611 15.5660 10.0000 3.0546 18.7505 10.2477 2.4566 18.0272 10.4186 3.1799 15.6126 11.2683 4.7695 17.9474 10.4788 3.2597 18.4594 10.3687 2.7477 15.5297 10.0000 3.2003 15.4379 10.0000 2.2442 18.8089 10.7225 2.3228 15.7756 9.7131 1.8702 18.8441 10.5415 2.3630 17.4385 10.0000 0.6163 18.8730 10.7810 1.2877 18.7280 10.6405 2.4791 18.7199 10.7339 2.4872 18.7398 10.6640 2.4673 18.5567 10.3952 2.6504 18.7633 10.7295 2.4438 18.7831 11.0643 2.0863 15.4065 10.2502 1.8249 18.7867 10.8712 2.0264 15.5738 9.5666 3.1755 15.4607 10.0000 2.1735 18.7936 10.8098 2.1230 18.7441 10.2346 2.4630 18.8582 10.4638 2.3489 18.9098 10.8228 1.4890 18.8514 10.5425 2.3557 18.5401 10.4414 2.6670 18.4079 10.2574 2.7992 15.5518 9.5655 1.5573 18.8208 10.8958 1.7127 18.8423 10.8628 1.5911 18.5529 10.6959 2.6542 18.9131 10.3685 2.2940 18.7850 10.7190 2.4221 18.6057 10.7657 2.6015 15.9176 8.7503 2.4507 18.9087 10.7850 1.4341 18.4564 10.7638 2.7507 18.2011 10.0000 1.9668 18.8120 10.6530 2.3607 18.0891 10.8660 3.1180 18.4095 10.6538 2.7976 18.9131 10.8589 1.4660 18.7703 10.5910 2.4368 18.1972 10.0000 1.9049 18.7127 10.7059 2.4944 15.9705 7.4320 2.0452 15.7409 7.1462 2.6970 16.2913 5.9150 4.2913 18.2785 10.7251 2.9286 18.7855 10.9367 2.1865 18.7611 10.7624 2.4460 18.6271 10.7576 2.5800 16.1926 6.8846 1.8155 16.0595 6.0104 3.5073 18.5223 10.6156 2.6849 16.9521 5.5890 2.7318 15.9228 6.3220 2.8733 18.1996 10.0000 2.7150 15.6582 5.8243 3.0339 18.5204 10.4728 2.6867 18.8389 10.7686 2.3700 17.9522 11.3246 3.2549 16.1181 0.2682 6.4551 15.1655 4.4065 4.6032 17.0708 6.3867 1.2160 18.1887 10.7023 3.0184 18.5316 10.6119 2.6755 18.1612 10.7297 3.0459 17.9990 10.0000 1.2801 16.6503 4.3383 3.6846 17.9366 11.3325 3.2705 17.5830 10.0000 0.5209 18.7111 10.6811 2.4960 18.1361 10.9327 3.0710 16.5172 6.7304 3.5827 18.6824 10.2310 2.5247 16.9736 3.1478 4.6439 18.2115 10.6047 2.9956 17.9545 10.8546 3.2526 18.2306 11.2717 2.9765 17.5081 10.2983 3.6990 16.6291 8.4262 2.9093 16.6571 9.5049 1.4307 18.0508 10.3121 3.1563 17.9577 10.3868 3.2494 18.2705 10.5301 2.9367 17.1761 8.4781 2.7865 17.9065 11.1184 3.3006 16.6826 8.6587 2.5455 17.9967 10.0000 1.2649 18.1847 11.3794 3.0224 18.0550 10.9821 3.1521 17.5189 10.9707 3.6882 18.2038 10.0000 2.8043 18.6322 10.2906 2.5749 17.2166 8.5367 2.2140 16.8106 8.2401 3.3048 16.6477 8.1382 3.4675 17.3656 10.2575 3.8415 16.9830 8.2398 3.0543 16.3185 7.7469 4.2465 18.1782 10.5128 3.0289 17.4126 10.0000 0.9412 16.2977 7.5852 3.9112 18.6686 7.6421 3.7198 18.7323 9.0904 3.9329 17.8140 11.0037 3.3931 18.2382 11.3642 2.9689 18.4884 8.8493 4.5236 18.2887 9.5134 1.5987 19.0009 8.0272 4.1827 18.6839 7.2229 4.2972 20.9195 4.2189 6.6160 18.1279 10.8522 3.0792 17.6055 8.3988 1.4837 18.4892 10.4517 2.7179 18.2503 11.0309 2.9568 17.9557 11.0490 3.2514 16.9382 7.7788 2.5156 17.6566 10.9902 3.5505 18.2930 11.2927 2.9141 18.8010 10.8893 1.9909 17.8282 11.1696 3.3789 17.8724 10.8514 3.3348 16.9046 8.3657 2.4864 18.2006 10.7200 3.0065 17.1515 8.6740 2.5596 16.0288 6.7284 5.2256 18.1477 10.3599 3.0594 17.8871 10.0000 0.5605 17.6677 10.5519 3.5394 17.1358 8.2031 3.0947 16.6203 8.3982 2.5328 15.9433 7.1075 5.0866 17.4657 11.1628 3.7414 17.9723 10.7027 3.2348 17.6821 11.5463 8.3940 16.5291 7.7573 3.7678 16.5941 8.3555 2.6260 16.2162 13.8666 8.3940 16.5298 8.5667 2.3700 16.8940 8.0141 1.9049 18.6043 10.5576 2.6028 17.5444 10.6584 3.6627 17.7493 11.8070 8.3940 16.0081 6.8528 5.0575 16.4223 7.7147 3.0225 17.9333 10.8610 3.2738 16.1717 7.3855 4.3961 17.6299 10.8567 3.5772 16.2190 10.0000 1.9635 18.0988 10.6715 3.1083 16.8760 6.7135 4.8645 18.1541 11.1963 3.0530 16.7050 7.5754 3.4758 16.6835 8.0423 2.1847 16.7261 8.1354 2.3617 18.1722 11.0839 3.0349 18.5290 10.6695 2.6781 17.6741 10.9831 3.5330 16.7883 9.4863 1.7635 16.2412 8.3686 3.4466 18.1241 10.7951 3.0830 17.0195 7.8073 2.3205 16.8235 7.9808 1.4868 16.9817 8.1313 1.7923 18.1233 11.0915 3.0839 18.2018 11.1608 3.0053 18.3549 10.7738 2.8522 17.7441 10.5528 3.4630 17.9243 11.3954 3.2828 16.8063 7.8816 1.4299 18.6797 10.6622 2.5274 17.5800 13.4980 8.3940 17.8329 13.6053 8.3940 17.7904 13.5798 8.3940 17.5830 10.0000 0.5585 15.7779 13.8156 8.3940 18.1474 11.1175 3.0597 18.0744 10.9131 3.1327 17.7731 8.1564 2.5240 17.3382 7.2297 3.3993 18.0965 11.0776 3.1106 17.6733 8.7887 2.4341 16.7609 7.0120 2.8641 17.2537 11.3917 8.3940 17.9683 10.8416 3.2388 17.7111 7.6475 3.5745 18.0795 11.1789 3.1277 17.1841 7.1858 2.8501 17.1220 7.3568 2.0365 16.9582 3.6283 6.2119 17.8032 11.0164 3.4039 17.6089 10.5827 3.5982 18.0388 11.3437 3.1683 18.1111 11.0374 3.0960 18.1627 11.3793 3.0444 17.1732 7.1966 2.4691 17.9407 12.8498 8.3940 18.0511 10.9755 3.1560 17.7899 10.7721 3.4172 18.2329 7.4158 3.3659 17.8699 11.1601 3.3372 17.5640 13.4199 8.3940 18.1548 10.9899 3.0523 17.9582 11.2855 3.2489 17.5950 5.9852 5.6221 18.0620 10.0000 2.0369 18.1273 10.7734 3.0798 17.5663 13.7618 8.3940 18.4530 9.7424 1.9245 15.6330 13.6248 8.3940 18.6861 7.1429 2.6890 18.0190 6.2329 5.0183 18.8256 7.0312 4.2568 17.6817 11.1446 3.5254 19.4434 5.2051 5.4158 17.3204 11.1746 8.3940 17.8313 11.0332 3.3758 18.8004 10.6716 2.4068 18.5595 10.7562 2.6477 17.6958 11.2515 3.5113 17.7040 11.0064 3.5031 18.0059 10.0000 1.8005 18.1635 11.2013 3.0436 18.0613 11.0816 3.1458 18.8875 6.8218 3.5912 19.7407 4.9635 5.8760 18.5218 10.4010 2.6853 18.5153 8.7537 2.8843 18.0878 11.1090 3.1193 17.5496 10.7715 3.6575 18.0294 12.4766 8.3940 18.0269 13.3260 8.3940 15.8645 13.3146 8.3940 15.8701 11.4325 8.3940 18.1060 12.5820 8.3940 18.1884 11.0689 3.0187 18.0635 10.8358 3.1436 18.1184 12.9486 8.3940 15.7742 13.8166 8.3940 17.4316 10.7740 3.7755 18.8247 7.1904 3.8373 18.5629 8.8233 3.1132 17.6798 10.8721 3.5274 18.0396 11.2069 3.1675 18.1584 11.2518 3.0487 18.2065 11.1975 3.0006 17.9102 11.0604 3.2969 18.0946 13.0529 8.3940 15.5908 11.4478 8.3940 17.7084 10.9805 3.4987 18.3198 9.5823 3.9405 18.8193 8.1265 3.5218 17.6100 11.3167 3.5971 17.8334 11.1655 3.3737 15.3115 12.3724 8.3940 17.6546 10.7082 3.8039 17.8657 12.0985 8.3940 17.5704 11.5421 8.3940 20.9387 2.9085 7.2462 18.2892 7.2202 4.4996 17.6285 11.2374 3.5786 19.0287 6.6350 5.1489 17.8845 11.0955 3.3226 18.1030 11.3517 3.1041 17.6926 11.1460 3.5145 17.2104 11.1326 3.9967 18.0712 11.3623 3.1359 17.7229 11.2698 3.4843 16.4866 9.9452 2.7875 16.9561 9.4773 3.5450 17.4234 10.9379 4.4865 17.6889 10.6923 3.5182 17.5180 10.9487 3.6891 16.8719 9.9655 4.0285 17.6275 11.0458 3.5796 17.1635 11.7547 4.0436 15.2694 10.3351 4.5066 17.2732 11.7483 3.9339 19.4970 7.4205 6.1284 17.2432 11.1137 3.9639 17.7112 11.3849 3.4959 17.6301 11.1050 3.5770 15.1941 8.9368 2.8671 17.6462 11.0709 3.5609 17.6538 11.0660 3.5533 17.7882 11.2950 3.4189 17.8524 10.0428 4.5372 16.6963 9.7773 3.4763 17.0685 10.0188 4.6651 16.6626 9.2021 5.1518 17.3464 11.4689 8.3940 17.8668 11.3146 3.3403 17.5281 11.1387 3.6790 15.6579 13.4246 8.3940 17.9470 11.1279 3.2601 17.9146 11.0749 3.2925 18.4318 9.7193 4.2708 17.3654 10.7025 5.4291 17.3922 10.4025 3.8149 17.8424 10.7043 3.9307 17.5942 10.9825 3.6129 18.1368 9.2723 3.9141 16.6385 11.3510 8.3940 15.9440 11.2547 8.3940 16.6761 11.2315 8.3940 18.8281 7.1365 6.0959 17.5837 11.2922 3.6235 18.6134 8.6886 4.9367 17.6821 10.9030 3.5250 18.0774 11.1356 3.1297 16.6729 11.9865 4.5461 16.1196 11.5273 8.3940 17.8691 13.3866 8.3940 18.0911 11.0624 3.1160 15.2942 10.0000 3.9396 17.6467 11.2957 3.5604 16.5746 13.9258 8.3940 17.1994 13.5607 8.3940 15.1654 10.0000 3.1040 17.6217 10.9748 3.5854 15.4415 10.0000 3.8982 18.6777 7.1710 6.6483 18.2016 11.3423 3.0055 16.7830 13.9767 8.3940 17.0282 13.6721 8.3940 15.6325 8.4150 5.2843 17.7181 10.5800 3.4890 16.7640 12.5738 4.6739 17.5184 11.0994 3.6887 16.4497 10.0000 2.7200 17.2854 11.5296 3.9218 17.1217 11.1463 8.3940 15.2268 12.1195 8.3940 18.0793 11.2318 3.1278 17.0742 10.2783 4.1329 15.7091 11.9610 8.3940 17.6149 11.1209 3.5922 17.6904 11.3563 3.5167 18.9544 6.2935 6.7521 17.1725 10.2204 5.8698 17.6879 11.2974 3.5192 16.6750 10.0000 3.2207 16.2181 11.2734 8.3940 16.1424 11.2304 8.3940 17.8637 11.8221 8.3940 16.6321 10.0000 2.7368 17.5312 11.3498 3.67
[...]
    <PointData>
        <DataArray type="Float32" Name="tag" format="ascii">
            131.0000 299.0000 739.0000 1131.0000 1567.0000 1791.0000 1907.0000 2035.0000 2191.0000 2391.0000 2475.0000 2491.0000 3271.0000 4395.0000 4415.0000 4643.0000 4891.0000 5299.0000 5643.0000 5703.0000 5815.0000 6911.0000 7147.0000 8263.0000 8603.0000 8615.0000 8815.0000 9019.0000 9027.0000 9039.0000 9255.0000 9407.0000 9459.0000 9471.0000 9751.0000 9963.0000 10155.0000 10279.0000 10311.0000 10495.0000 10531.0000 10611.0000 10763.0000 11283.0000 11351.0000 11427.0000 11435.0000 11439.0000 11759.0000 12011.0000 12211.0000 12279.0000 12395.0000 12411.0000 12631.0000 12719.0000 12939.0000 13023.0000 13083.0000 13119.0000 13875.0000 14087.0000 14151.0000 14179.0000 14215.0000 14255.0000 14327.0000 14491.0000 14763.0000 15083.0000 15279.0000 15671.0000 15971.0000 16147.0000 16811.0000 17007.0000 17231.0000 17235.0000 17567.0000 17919.0000 18279.0000 19547.0000 20267.0000 21147.0000 21671.0000 21719.0000 22071.0000 23255.0000 23339.0000 23367.0000 23731.0000 23847.0000 23951.0000 24127.0000 24707.0000 24743.0000 25151.0000 25303.0000 26175.0000 26207.0000 26471.0000 26959.0000 27967.0000 28923.0000 29639.0000 29719.0000 30023.0000 30379.0000 30395.0000 30827.0000 30863.0000 31723.0000 31915.0000 32111.0000 32255.0000 32667.0000 32943.0000 33107.0000 33435.0000 33563.0000 33943.0000 34135.0000 35675.0000 35715.0000 35779.0000 35963.0000 35995.0000 36223.0000 36547.0000 36699.0000 36711.0000 36935.0000 38247.0000 38399.0000 38523.0000 38535.0000 38591.0000 38627.0000 39019.0000 39147.0000 39383.0000 39655.0000 39843.0000 39943.0000 40335.0000 40439.0000 40727.0000 40963.0000 41231.0000 41359.0000 41515.0000 41551.0000 41567.0000 41699.0000 41895.0000 42015.0000 42139.0000 42351.0000 43367.0000 43467.0000 43483.0000 43535.0000 43903.0000 43959.0000 44151.0000 44331.0000 44539.0000 45039.0000 45287.0000 45339.0000 45371.0000 45395.0000 45827.0000 45887.0000 45931.0000 46091.0000 46347.0000 46351.0000 46683.0000 46735.0000 46887.0000 50003.0000 64467.0000 65415.0000 60363.0000 66311.0000 66307.0000 58715.0000 63635.0000 65379.0000 66299.0000 67147.0000 57979.0000 61283.0000 61995.0000 66283.0000 50895.0000 66279.0000 65331.0000 57147.0000 59607.0000 55207.0000 47019.0000 47043.0000 47191.0000 47311.0000 47347.0000 47355.0000 47411.0000 47419.0000 48003.0000 48039.0000 48219.0000 48255.0000 48363.0000 48551.0000 48791.0000 49155.0000 49507.0000 49523.0000 49643.0000 49771.0000 50039.0000 50047.0000 50059.0000 50063.0000 50311.0000 50415.0000 50539.0000 50675.0000 50735.0000 50751.0000 50815.0000 51007.0000 51087.0000 51191.0000 51271.0000 51291.0000 51691.0000 51799.0000 51815.0000 51891.0000 52391.0000 52491.0000 52675.0000 52827.0000 52835.0000 52923.0000 52931.0000 52963.0000 53131.0000 53515.0000 53535.0000 53539.0000 53599.0000 54415.0000 54519.0000 54755.0000 54827.0000 55015.0000 55035.0000 55039.0000 55143.0000 55283.0000 55411.0000 55623.0000 55651.0000 56031.0000 56071.0000 56307.0000 56467.0000 56535.0000 56603.0000 56731.0000 56991.0000 57063.0000 57183.0000 57395.0000 57487.0000 57787.0000 57847.0000 58003.0000 58095.0000 58143.0000 58471.0000 58527.0000 58607.0000 58875.0000 59167.0000 59667.0000 59923.0000 59927.0000 59947.0000 60063.0000 60495.0000 60563.0000 60671.0000 60675.0000 61407.0000 61627.0000 61659.0000 61847.0000 61895.0000 61967.0000 62139.0000 62419.0000 62431.0000 62527.0000 62535.0000 62599.0000 62951.0000 63815.0000 63855.0000 63911.0000 63927.0000 63995.0000 64123.0000 64587.0000 64607.0000 64683.0000 64803.0000 64811.0000 64835.0000 64999.0000 65099.0000 65143.0000 65163.0000 65551.0000 65579.0000 65927.0000 65975.0000 66003.0000 66075.0000 66179.0000 66419.0000 66423.0000 66439.0000 66479.0000 66523.0000 66703.0000 66707.0000 66955.0000 67087.0000 67091.0000 81631.0000 82479.0000 73815.0000 73803.0000 84147.0000 80691.0000 72223.0000 82451.0000 80683.0000 74655.0000 74635.0000 78979.0000 81515.0000 71495.0000 72203.0000 77203.0000 69439.0000 73731.0000 76311.0000 72179.0000 69415.0000 69411.0000 71559.0000 75571.0000 80583.0000 84911.0000 67267.0000 67687.0000 67715.0000 68047.0000 68295.0000 68487.0000 68511.0000 68587.0000 68607.0000 69067.0000 69187.0000 69471.0000 69479.0000 69487.0000 69491.0000 69651.0000 69879.0000 69995.0000 70255.0000 70379.0000 70659.0000 70879.0000 70911.0000 70931.0000 71147.0000 71271.0000 71579.0000 71627.0000 71799.0000 71815.0000 71955.0000 72047.0000 72131.0000 72307.0000 72331.0000 72379.0000 72523.0000 72539.0000 72547.0000 72607.0000 72795.0000 73115.0000 73151.0000 73219.0000 73623.0000 73947.0000 73999.0000 74051.0000 74099.0000 74259.0000 74367.0000 74723.0000 74755.0000 74783.0000 74839.0000 74859.0000 74915.0000 74955.0000 75075.0000 75171.0000 75267.0000 75379.0000 75595.0000 75631.0000 75651.0000 75683.0000 75711.0000 75719.0000 75987.0000 76459.0000 76515.0000 76739.0000 76995.0000 77059.0000 77143.0000 77315.0000 77351.0000 77383.0000 77399.0000 77451.0000 77459.0000 77515.0000 77527.0000 77727.0000 77867.0000 77967.0000 78003.0000 78239.0000 78451.0000 78543.0000 78615.0000 78643.0000 78867.0000 79503.0000 79511.0000 79527.0000 79911.0000 79967.0000 79999.0000 80051.0000 80091.0000 80435.0000 80563.0000 80831.0000 80843.0000 81035.0000 81175.0000 81243.0000 81379.0000 81735.0000 81759.0000 81919.0000 82155.0000 82235.0000 82299.0000 82543.0000 82699.0000 82731.0000 83019.0000 83143.0000 83415.0000 83623.0000 83867.0000 83987.0000 84295.0000 84435.0000 84607.0000 84667.0000 84699.0000 84823.0000 85127.0000 85171.0000 85227.0000 85251.0000 85287.0000 85427.0000 85487.0000 85955.0000 85959.0000 86047.0000 86067.0000 86071.0000 86155.0000 86383.0000 91619.0000 91603.0000 90855.0000 99303.0000 103835.0000 98515.0000 105527.0000 95863.0000 90835.0000 105495.0000 97147.0000 91539.0000 88455.0000 107171.0000 101007.0000 95203.0000 100103.0000 105467.0000 90035.0000 99215.0000 106303.0000 99207.0000 107127.0000 101803.0000 100931.0000 100059.0000 101779.0000 97675.0000 102771.0000 99107.0000 93675.0000 97047.0000 87535.0000 100175.0000 107059.0000 98371.0000 106195.0000 107015.0000 107011.0000 100855.0000 102715.0000 90747.0000 100839.0000 101699.0000 99959.0000 92235.0000 89959.0000 100827.0000 99047.0000 106139.0000 95751.0000 101679.0000 106127.0000 100807.0000 101959.0000 102899.0000 101655.0000 106111.0000 99935.0000 101635.0000 102635.0000 99903.0000 101607.0000 103515.0000 102595.0000 105207.0000 86863.0000 86895.0000 86915.0000 86931.0000 86979.0000 86999.0000 87075.0000 87083.0000 87139.0000 87739.0000 87807.0000 88039.0000 88083.0000 88195.0000 88559.0000 88663.0000 88727.0000 88823.0000 89039.0000 89095.0000 89423.0000 89475.0000 89719.0000 89731.0000 90231.0000 90283.0000 90287.0000 90303.0000 90331.0000 90363.0000 90383.0000 90899.0000 90915.0000 90963.0000 91771.0000 91823.0000 91843.0000 91967.0000 91999.0000 92115.0000 92143.0000 92403.0000 92415.0000 92515.0000 92599.0000 93151.0000 93203.0000 93219.0000 93343.0000 93515.0000 93959.0000 93983.0000 94071.0000 94087.0000 94103.0000 94207.0000 94219.0000 94379.0000 94623.0000 94639.0000 94643.0000 94655.0000 94791.0000 95035.0000 95295.0000 95307.0000 95339.0000 95419.0000 95427.0000 95503.0000 95515.0000 95675.0000 95947.0000 96019.0000 96055.0000 96239.0000 96259.0000 96555.0000 96571.0000 96635.0000 96643.0000 96667.0000 96679.0000 96695.0000 96703.0000 96747.0000 96755.0000 96771.0000 96891.0000 97291.0000 97403.0000 97487.0000 97491.0000 97871.0000 97887.0000 97919.0000 97923.0000 97927.0000 97939.0000 98015.0000 98019.0000 98191.0000 98599.0000 98615.0000 98671.0000 98675.0000 98719.0000 98767.0000 98847.0000 98879.0000 98943.0000 99323.0000 99327.0000 99407.0000 99611.0000 99615.0000 99647.0000 100215.0000 100251.0000 100295.0000 100303.0000 100319.0000 100331.0000 100383.0000 100427.0000 100463.0000 100479.0000 100703.0000 101067.0000 101083.0000 101099.0000 101127.0000 101167.0000 101195.0000 101199.0000 101203.0000 101279.0000 101495.0000 101991.0000 102159.0000 102207.0000 102287.0000 102335.0000 102399.0000 102411.0000 102995.0000 103019.0000 103031.0000 103039.0000 103075.0000 103175.0000 103331.0000 103407.0000 103427.0000 103435.0000 103475.0000 103955.0000 103959.0000 104007.0000 104047.0000 104059.0000 104063.0000 104091.0000 104115.0000 104159.0000 104183.0000 104215.0000 104227.0000 104315.0000 104763.0000 104843.0000 104891.0000 104903.0000 104915.0000 104923.0000 104935.0000 104943.0000 104979.0000 105603.0000 105639.0000 105775.0000 105795.0000 105807.0000 105843.0000 105959.0000 105999.0000 106419.0000 106487.0000 106531.0000 106583.0000 106639.0000 106667.0000 106683.0000 106723.0000 106835.0000 120087.0000 115571.0000 125427.0000 118583.0000 110443.0000 121587.0000 120071.0000 121423.0000 119863.0000 109655.0000 116319.0000 122951.0000 113115.0000 117623.0000 121583.0000 120615.0000 118559.0000 114803.0000 123667.0000 120599.0000 125207.0000 111431.0000 122139.0000 109559.0000 116047.0000 115271.0000 116747.0000 121359.0000 113739.0000 124379.0000 126855.0000 123595.0000 110339.0000 119071.0000 111139.0000 112811.0000 111951.0000 112803.0000 109511.0000 117011.0000 111947.0000 120551.0000 109731.0000 111415.0000 112259.0000 113939.0000 124359.0000 125135.0000 111103.0000 111923.0000 111919.0000 111911.0000 116015.0000 112767.0000 111903.0000 112759.0000 107835.0000 125383.0000 112751.0000 124351.0000 116259.0000 126831.0000 118519.0000 121303.0000 116999.0000 107815.0000 120519.0000 125099.0000 111871.0000 120011.0000 119003.0000 126815.0000 111067.0000 114407.0000 123519.0000 118179.0000 124311.0000 114759.0000 118167.0000 116611.0000 116599.0000 110227.0000 115931.0000 124287.0000 125959.0000 115923.0000 115919.0000 125063.0000 119699.0000 120479.0000 114371.0000 121203.0000 120467.0000 115119.0000 125051.0000 121187.0000 120463.0000 108571.0000 111023.0000 118131.0000 113603.0000 110191.0000 121167.0000 118935.0000 119659.0000 123451.0000 112655.0000 122775.0000 117423.0000 118927.0000 119647.0000 116519.0000 117415.0000 118115.0000 112647.0000 121143.0000 121127.0000 124231.0000 123435.0000 118095.0000 109383.0000 111003.0000 122731.0000 124199.0000 119615.0000 109379.0000 118079.0000 118075.0000 126675.0000 118879.0000 114323.0000 118871.0000 118867.0000 123399.0000 124183.0000 124927.0000 124179.0000 118859.0000 112591.0000 109351.0000 112587.0000 122671.0000 115831.0000 118847.0000 118843.0000 114291.0000 110967.0000 112571.0000 122639.0000 118039.0000 111719.0000 126603.0000 112551.0000 115027.0000 120331.0000 122635.0000 118835.0000 124887.0000 109327.0000 114275.0000 114271.0000 121079.0000 125775.0000 125771.0000 125767.0000 111675.0000 119515.0000 118803.0000 118011.0000 122615.0000 126559.0000 125743.0000 120291.0000 125739.0000 124535.0000 126535.0000 118779.0000 124087.0000 121507.0000 108855.0000 109707.0000 122259.0000 116187.0000 113883.0000 118447.0000 117719.0000 115399.0000 116919.0000 109679.0000 122999.0000 118419.0000 116143.0000 126155.0000 123747.0000 119191.0000 119179.0000 126975.0000 112119.0000 111295.0000 122223.0000 125299.0000 107263.0000 107295.0000 107339.0000 107391.0000 107423.0000 107483.0000 107555.0000 108091.0000 108099.0000 108195.0000 108203.0000 108231.0000 108251.0000 108255.0000 108371.0000 108451.0000 108459.0000 109031.0000 109035.0000 109119.0000 109151.0000 109191.0000 109275.0000 109287.0000 109791.0000 109855.0000 109911.0000 109983.0000 110667.0000 110691.0000 110759.0000 110803.0000 110831.0000 110843.0000 110883.0000 110899.0000 110903.0000 111467.0000 111475.0000 111503.0000 111515.0000 111607.0000 111623.0000 111655.0000 112371.0000 113155.0000 113203.0000 113299.0000 113419.0000 113447.0000 113483.0000 113487.0000 114039.0000 114087.0000 114099.0000 114243.0000 114895.0000 114915.0000 114927.0000 114943.0000 114991.0000 115667.0000 115767.0000 116331.0000 116371.0000 116391.0000 116419.0000 117167.0000 117175.0000 117311.0000 117835.0000 117855.0000 117891.0000 117967.0000 118591.0000 118611.0000 118667.0000 118719.0000 118739.0000 119343.0000 119419.0000 119447.0000 120111.0000 120135.0000 120151.0000 120183.0000 120243.0000 120251.0000 120883.0000 121031.0000 121611.0000 121643.0000 121651.0000 121679.0000 121719.0000 121743.0000 122375.0000 122479.0000 122503.0000 122539.0000 123099.0000 123127.0000 123131.0000 123159.0000 123175.0000 123203.0000 123215.0000 123219.0000 123227.0000 123259.0000 123283.0000 123939.0000 124015.0000 124043.0000 124051.0000 124659.0000 124663.0000 124715.0000 124735.0000 124743.0000 124747.0000 124791.0000 124799.0000 124807.0000 124823.0000 125439.0000 125483.0000 125547.0000 125603.0000 125655.0000 125671.0000 125675.0000 126351.0000 126383.0000 126423.0000 126427.0000 126443.0000 126471.0000 126479.0000 140835.0000 137607.0000 127907.0000 137603.0000 146967.0000 139287.0000 136687.0000 134779.0000 127759.0000 135659.0000 134759.0000 140819.0000 129559.0000 130243.0000 146023.0000 134731.0000 136563.0000 127891.0000 139203.0000 133951.0000 132915.0000 128611.0000 135619.0000 131191.0000 131959.0000 139195.0000 128591.0000 130379.0000 146823.0000 130987.0000 130215.0000 130983.0000 145879.0000 130207.0000 135751.0000 130971.0000 130195.0000 128563.0000 127731.0000 135591.0000 141471.0000 129547.0000 136515.0000 140795.0000 132075.0000 133731.0000 143183.0000 128547.0000 136511.0000 134667.0000 146927.0000 137411.0000 133927.0000 142315.0000 146923.0000 142311.0000 130175.0000 146759.0000 129335.0000 130935.0000 144103.0000 128699.0000 138479.0000 140603.0000 135507.0000 145831.0000 131899.0000 129307.0000 128691.0000 131159.0000 136479.0000 131151.0000 128515.0000 129527.0000 145047.0000 132851.0000 138307.0000 135715.0000 145815.0000 133675.0000 131131.0000 135499.0000 127659.0000 142271.0000 138447.0000 146735.0000 127639.0000 143111.0000 130907.0000 145027.0000 146903.0000 143235.0000 134603.0000 145019.0000 139247.0000 130883.0000 140571.0000 127627.0000 136431.0000 143071.0000 129239.0000 132787.0000 137515.0000 129223.0000 130847.0000 145763.0000 128427.0000 136411.0000 130819.0000 130079.0000 131807.0000 130075.0000 129175.0000 134535.0000 140543.0000 136387.0000 129151.0000 129147.0000 134503.0000 132715.0000 139047.0000 134499.0000 130015.0000 133555.0000 140515.0000 127495.0000 133547.0000 135355.0000 132699.0000 139783.0000 128347.0000 128339.0000 134463.0000 135331.0000 136319.0000 134455.0000 132687.0000 133495.0000 129071.0000 134423.0000 127443.0000 134395.0000 133483.0000 141259.0000 137295.0000 143831.0000 144999.0000 142171.0000 140455.0000 146619.0000 135283.0000 142159.0000 140451.0000 146611.0000 129943.0000 132643.0000 143815.0000 129935.0000 135259.0000 131651.0000 129919.0000 127395.0000 130631.0000 145639.0000 130603.0000 139651.0000 139647.0000 142919.0000 140407.0000 129891.0000 145607.0000 144703.0000 143759.0000 134283.0000 146567.0000 132555.0000 140379.0000 136211.0000 131583.0000 142091.0000 142891.0000 129007.0000 130567.0000 138051.0000 143731.0000 129859.0000 145547.0000 142859.0000 134259.0000 132507.0000 128979.0000 142823.0000 135139.0000 139583.0000 146515.0000 128967.0000 140323.0000 138895.0000 129495.0000 145479.0000 140307.0000 131091.0000 145475.0000 131543.0000 142775.0000 137135.0000 127299.0000 141115.0000 140303.0000 136147.0000 136143.0000 142003.0000 138007.0000 133883.0000 145459.0000 136135.0000 138855.0000 130495.0000 144575.0000 133359.0000 135675.0000 144563.0000 144051.0000 145431.0000 145927.0000 130275.0000 144551.0000 132019.0000 127103.0000 127123.0000 127175.0000 127255.0000 127259.0000 128059.0000 128067.0000 128115.0000 128795.0000 128847.0000 129579.0000 129623.0000 129687.0000 129799.0000 130475.0000 131275.0000 131279.0000 131391.0000 131399.0000 131415.0000 132187.0000 132207.0000 132211.0000 132291.0000 132307.0000 132423.0000 132439.0000 133063.0000 133111.0000 133123.0000 133211.0000 133243.0000 133275.0000 133339.0000 134055.0000 134059.0000 134067.0000 134119.0000 134147.0000 134151.0000 134899.0000 134919.0000 134923.0000 134927.0000 134947.0000 134991.0000 135011.0000 135787.0000 135835.0000 135839.0000 135891.0000 135987.0000 135999.0000 136003.0000 136007.0000 136027.0000 136055.0000 136079.0000 136087.0000 136103.0000 136727.0000 136755.0000 136935.0000 136943.0000 137687.0000 137691.0000 137727.0000 137771.0000 137843.0000 137867.0000 137903.0000 137975.0000 138547.0000 138643.0000 138683.0000 138703.0000 138711.0000 138751.0000 138787.0000 138791.0000 138839.0000 139343.0000 139367.0000 139395.0000 139463.0000 139491.0000 140103.0000 140123.0000 140147.0000 140171.0000 140839.0000 140879.0000 140919.0000 140943.0000 141047.0000 141631.0000 141643.0000 141659.0000 141715.0000 141763.0000 141775.0000 141819.0000 141823.0000 141855.0000 141867.0000 141879.0000 142507.0000 142535.0000 142583.0000 142599.0000 142631.0000 142691.0000 142727.0000 143375.0000 143455.0000 143511.0000 143539.0000 143583.0000 143635.0000 143639.0000 144243.0000 144255.0000 144259.0000 144311.0000 144415.0000 144479.0000 144519.0000 145183.0000 145187.0000 145287.0000 145295.0000 145315.0000 145363.0000 146107.0000 146147.0000 146167.0000 146191.0000 146207.0000 146211.0000 146247.0000 146251.0000 146271.0000 146323.0000 146419.0000 166627.0000 173343.0000 160919.0000 164647.0000 152583.0000 171735.0000 164643.0000 166619.0000 153511.0000 150699.0000 152579.0000 170027.0000 159971.0000 151543.0000 168359.0000 168351.0000 159119.0000 155275.0000 164599.0000 160863.0000 159015.0000 164591.0000 159931.0000 153407.0000 153403.0000 147891.0000 160855.0000 147759.0000 156203.0000 150683.0000 150603.0000 159927.0000 164551.0000 166423.0000 147731.0000 171651.0000 162703.0000 147719.0000 162823.0000 171647.0000 160827.0000 158179.0000 160823.0000 160819.0000 168315.0000 152403.0000 158967.0000 159095.0000 147851.0000 169907.0000 173223.0000 148803.0000 162815.0000 164511.0000 158007.0000 160967.0000 168295.0000 147839.0000 155195.0000 152375.0000 150659.0000 166375.0000 158939.0000 159883.0000 148791.0000 154411.0000 158935.0000 152351.0000 168271.0000 147827.0000 149747.0000 160023.0000 156275.0000 150655.0000 149743.0000 155343.0000 158127.0000 157211.0000 154255.0000 147819.0000 154403.0000 157959.0000 151427.0000 149723.0000 154239.0000 162635.0000 147655.0000 164471.0000 166543.0000 150499.0000 151403.0000 168231.0000 158907.0000 171607.0000 147639.0000 157067.0000 152491.0000 166319.0000 171579.0000 160715.0000 148563.0000 156035.0000 164407.0000 154171.0000 159807.0000 148527.0000 166259.0000 156011.0000 171559.0000 151271.0000 158843.0000 151259.0000 153207.0000 152251.0000 166239.0000 149479.0000 156995.0000 158835.0000 152239.0000 157871.0000 148495.0000 160659.0000 152223.0000 151211.0000 158827.0000 148479.0000 152203.0000 157839.0000 168163.0000 164343.0000 155035.0000 159751.0000 160627.0000 149403.0000 159719.0000 158767.0000 156943.0000 157803.0000 168115.0000 155915.0000 149359.0000 149355.0000 151151.0000 162455.0000 155899.0000 156931.0000 150643.0000 147795.0000 151135.0000 152151.0000 149307.0000 156903.0000 169755.0000 158735.0000 168099.0000 147383.0000 158719.0000 160579.0000 149283.0000 168091.0000 173055.0000 164267.0000 171451.0000 150235.0000 150227.0000 151103.0000 160567.0000 160563.0000 152475.0000 152115.0000 173011.0000 154891.0000 156843.0000 169699.0000 150207.0000 153015.0000 171395.0000 157683.0000 160535.0000 166119.0000 147339.0000 171391.0000 148327.0000 164215.0000 162375.0000 162371.0000 158675.0000 149227.0000 154871.0000 152995.0000 162363.0000 152103.0000 158667.0000 158663.0000 160507.0000 151079.0000 166099.0000 152099.0000 160503.0000 154863.0000 166095.0000 162339.0000 160491.0000 166503.0000 170075.0000 147015.0000 147031.0000 147059.0000 147103.0000 147143.0000 147203.0000 147211.0000 147219.0000 147223.0000 147235.0000 147239.0000 147283.0000 147287.0000 147983.0000 147987.0000 148051.0000 148067.0000 148199.0000 148271.0000 148275.0000 148867.0000 148995.0000 149003.0000 149087.0000 149103.0000 149