<?xml version="1.0"?>
<VTKFile type="PolyData" version="1.0" byte_order="LittleEndian" header_type="UInt64">
<PolyData>
<Piece NumberOfPoints="150" NumberOfVerts="0" NumberOfLines="0" NumberOfPolys="0">
    <Points>
        <DataArray type="Float32" NumberOfComponents="3" format="ascii">
        16.7902 16.3791 8.3940 16.9763 16.3524 8.3940 16.7674 16.3205 8.3940 15.7441 16.2394 8.3940 15.6254 16.1953 8.3940 16.0364 16.2089 8.3940 17.7589 16.1289 8.3940 17.9970 16.0020 8.3940 17.1609 16.0438 8.3940 16.0716 16.0419 8.3940 17.5132 16.0251 8.3940 17.4849 15.9937 8.3940 15.7521 15.9962 8.3940 16.2986 16.0196 8.3940 17.5045 15.9600 8.3940 16.3707 15.8930 8.3940 16.7318 15.9982 8.3940 18.2394 15.8809 8.3940 17.9360 15.8763 8.3940 15.4882 15.9056 8.3940 17.6178 15.8937 8.3940 17.1030 15.9161 8.3940 16.9211 15.8991 8.3940 18.4769 15.7705 8.3940 15.1609 15.7944 8.3940 17.2559 15.8867 8.3940 16.6242 15.8881 8.3940 15.5996 15.8394 8.3940 17.1476 15.8711 8.3940 17.0885 15.8776 8.3940 16.8715 15.8305 8.3940 17.3632 15.8230 8.3940 16.1959 15.8302 8.3940 16.8281 15.8273 8.3940 16.0349 15.7950 8.3940 17.2062 15.8010 8.3940 17.2901 15.7317 8.3940 17.0861 15.7416 8.3940 18.4074 15.6373 8.3940 16.7796 15.7417 8.3940 17.4079 15.7059 8.3940 16.1925 15.7291 8.3940 17.3189 19.8500 6.3988 15.5502 23.1460 7.4676 17.2955 19.2115 6.3463 17.1507 17.0023 4.9920 16.0710 15.7183 8.3940 17.6292 15.6803 8.3940 17.5628 19.9505 6.0795 17.2757 18.7499 5.9309 16.1885 19.8758 6.7571 17.3008 16.3402 4.6472 17.0632 17.9915 5.4831 15.4021 19.5997 6.3514 18.0055 15.6249 8.3940 17.1215 16.8648 4.5671 15.7108 18.6836 5.5727 17.7189 15.6599 8.3940 16.9330 15.7032 8.3940 17.8767 20.3532 6.2899 17.2484 18.1735 5.1805 18.1828 15.6043 8.3940 15.3693 19.3411 5.6012 16.5883 15.6919 8.3940 19.2343 15.4908 8.3940 17.7114 17.5801 4.7802 15.3464 17.1874 2.8949 17.5041 15.6437 8.3940 15.7192 16.9182 2.2715 16.6995 15.6541 8.3940 15.9018 17.1404 2.2674 16.6121 19.0579 6.2841 17.0094 17.1229 3.5941 15.2312 15.5753 8.3940 16.7135 15.6463 8.3940 15.3758 16.6126 1.9667 16.4527 16.8531 2.9130 16.2807 15.6300 8.3940 17.4675 17.2710 3.7519 15.5783 18.5412 4.3691 15.9889 18.8712 6.1404 15.4518 18.7127 4.3415 15.2242 15.5482 8.3940 18.3954 15.5399 8.3940 17.9240 15.5651 8.3940 15.7359 15.5801 8.3940 17.0063 15.5927 8.3940 16.0148 17.2015 3.0241 15.9568 15.4287 8.3940 16.2487 15.3434 2.5053 16.7870 15.5415 8.3940 16.7482 15.5647 8.3940 18.0653 15.4714 8.3940 15.6429 15.7572 3.7032 16.8983 15.5843 8.3940 16.6234 15.5872 8.3940 15.7616 15.5710 8.3940 16.3890 15.5806 8.3940 16.6886 15.5488 8.3940 18.6369 15.4667 8.3940 16.5952 15.5357 8.3940 16.1412 15.5223 8.3940 17.1881 15.5174 8.3940 15.5774 15.4902 8.3940 16.7913 15.5211 8.3940 17.6538 15.4789 8.3940 16.7791 15.4996 8.3940 17.3739 15.4816 8.3940 16.9589 15.4848 8.3940 15.7786 15.4652 8.3940 15.9758 16.3869 3.9260 17.1966 15.4683 8.3940 16.3240 15.4732 8.3940 16.6844 15.4582 8.3940 16.0666 15.4242 8.3940 18.1277 15.3854 8.3940 17.0649 15.4251 8.3940 16.6089 15.4224 8.3940 17.8222 15.4003 8.3940 18.7577 15.3318 8.3940 18.0809 15.3827 8.3940 17.5198 15.2518 8.3940 15.4720 15.7816 4.6432 17.2402 15.3791 8.3940 15.2589 15.3385 8.3940 16.1675 15.3446 8.3940 18.4883 15.3172 8.3940 18.8493 15.2765 8.3940 17.5315 15.3244 8.3940 16.9830 15.3390 8.3940 18.6284 15.2679 8.3940 17.2314 15.3247 8.3940 16.6282 15.3288 8.3940 17.9334 15.2850 8.3940 16.5742 15.3119 8.3940 15.3252 15.2494 8.3940 15.5189 15.2717 8.3940 18.5810 15.2200 8.3940 16.4757 15.2709 8.3940 15.4468 15.2539 8.3940 16.0918 15.2535 8.3940 15.2812 15.2094 8.3940 16.9194 15.2392 8.3940 19.6742 15.1485 8.3940 18.3871 15.1941 8.3940 19.3187 15.1559 8.3940 17.4298 15.2159 8.3940 18.0573 15.1905 8.3940 15.2913 15.1723 8.3940 15.3729 15.1737 8.3940 
        </DataArray>
    </Points>
    <PointData>
        <DataArray type="Float32" Name="tag" format="ascii">
            72307.0000 77383.0000 71579.0000 77399.0000 49155.0000 88727.0000 85251.0000 81735.0000 100479.0000 107555.0000 72331.0000 96679.0000 104935.0000 105603.0000 107423.0000 117311.0000 108255.0000 79967.0000 103019.0000 95295.0000 113487.0000 85955.0000 124183.0000 88559.0000 82543.0000 86979.0000 125603.0000 103031.0000 96571.0000 114927.0000 112647.0000 109119.0000 108451.0000 124747.0000 123131.0000 122503.0000 105795.0000 118095.0000 71627.0000 135891.0000 115919.0000 134059.0000 552099.0000 545291.0000 548655.0000 542811.0000 111067.0000 100215.0000 555859.0000 554051.0000 550331.0000 545363.0000 554087.0000 548599.0000 111903.0000 547535.0000 552559.0000 99327.0000 111467.0000 558411.0000 541039.0000 96771.0000 537683.0000 146323.0000 58875.0000 554243.0000 534527.0000 133483.0000 539151.0000 127259.0000 554299.0000 552115.0000 549331.0000 125771.0000 121643.0000 533023.0000 554659.0000 115667.0000 552295.0000 562163.0000 563879.0000 563743.0000 118843.0000 107339.0000 124927.0000 145459.0000 124791.0000 563251.0000 156707.0000 506923.0000 143583.0000 156687.0000 122375.0000 576755.0000 148479.0000 152151.0000 106639.0000 144563.0000 122671.0000 88663.0000 125739.0000 133275.0000 159387.0000 111923.0000 130567.0000 141879.0000 134535.0000 132643.0000 149219.0000 149111.0000 571779.0000 129935.0000 149131.0000 151935.0000 151135.0000 106583.0000 143635.0000 158667.0000 124663.0000 111919.0000 115767.0000 145479.0000 580495.0000 160503.0000 148051.0000 150879.0000 126383.0000 106667.0000 139463.0000 152115.0000 116331.0000 141855.0000 144519.0000 124287.0000 160567.0000 135507.0000 153827.0000 134259.0000 150923.0000 155711.0000 160303.0000 147103.0000 158523.0000 53535.0000 146271.0000 53515.0000 158675.0000 123939.0000 152695.0000 157427.0000 
         </DataArray>
    </PointData>
</Piece>
</PolyData>
</VTKFile>