<?xml version="1.0"?>
<VTKFile type="RectilinearGrid" version="1.0" byte_order="LittleEndian" header_type="UInt64">
<RectilinearGrid WholeExtent="0 25 0 25 0 15">
<Piece Extent="0 25 0 25 0 15">
<Coordinates>
<DataArray type="Float64" Name="Array X-Axis" format="ascii" RangeMin="0.0" RangeMax="15.0">
0.0 0.6 1.2 1.8 2.4 3.0 3.6 4.2 4.8 5.4 6.0 6.6 7.2 7.8 8.4 9.0 9.6 10.2 10.8 11.4 12.0 12.6 13.2 13.8 14.4 15.0 
</DataArray>
<DataArray type="Float64" Name="Array Y-Axis" format="ascii" RangeMin="0.0" RangeMax="15.0">
0.0 0.6 1.2 1.8 2.4 3.0 3.6 4.2 4.8 5.4 6.0 6.6 7.2 7.8 8.4 9.0 9.6 10.2 10.8 11.4 12.0 12.6 13.2 13.8 14.4 15.0 
</DataArray>
<DataArray type="Float64" Name="Array Z-Axis" format="ascii" RangeMin="0.0" RangeMax="9.0">
0.0 0.6 1.2 1.8 2.4 3.0 3.6 4.2 4.8 5.4 6.0 6.6 7.2 7.8 8.4 9.0 
</DataArray>
</Coordinates>
<PointData>
<DataArray Name="TEMPERATURE" NumberOfComponents="1" type="Float64" format="ascii">
20.0 20.0 20.0 20.0 20.0 20.0 20.0 20.0 20.0 20.0 20.0 20.0 20.0 20.0 20.0 20.0 20.0 20.0 20.0 20.0 20.0 20.0 20.0 20.0 20.0 20.0 20.0 20.0 20.0 20.0 20.0 20.0 20.0 20.0 20.0 20.0 20.0 20.0 20.0 20.0 20.0 20.0 20.0 20.0 20.1 20.1 20.1 20.1 20.1 20.1 20.1 20.1 20.0 20.0 20.1 20.1 20.1 20.1 20.0 20.0 20.1 20.1 20.1 20.1 20.1 20.1 20.1 20.1 20.1 20.1 20.1 20.1 20.1 20.1 20.1 20.1 20.1 20.1 20.0 20.0 20.1 20.1 20.1 20.1 20.1 20.1 20.1 20.1 20.1 20.1 20.1 20.1 20.1 20.1 20.1 20.1 20.1 20.2 20.2 20.2 20.2 20.2 20.2 20.2 20.0 20.0 20.0 20.1 20.1 20.1 20.1 20.1 20.1 20.1 20.1 20.1 20.1 20.1 20.2 20.2 20.2 20.2 20.2 20.2 20.2 20.2 20.3 20.3 20.3 20.3 20.0 20.0 20.0 20.1 20.1 20.2 20.2 20.2 20.2 20.2 20.2 20.2 20.2 20.2 20.2 20.2 20.2 20.2 20.3 20.3 20.3 20.3 20.3 20.3 20.4 20.4 20.0 20.0 20.0 20.1 20.1 20.2 20.2 20.2 20.2 20.2 20.2 20.2 20.2 20.2 20.2 20.3 20.3 20.3 20.3 20.3 20.4 20.4 20.4 20.4 20.5 20.5 20.0 20.0 20.0 20.1 20.1 20.2 20.2 20.2 20.3 20.3 20.3 20.3 20.3 20.3 20.3 20.3 20.3 20.4 20.4 20.4 20.4 20.5 20.5 20.5 20.6 20.6 20.0 20.0 20.0 20.1 20.1 20.1 20.2 20.2 20.3 20.3 20.4 20.4 20.3 20.3 20.4 20.4 20.4 20.4 20.4 20.5 20.5 20.6 20.6 20.6 20.7 20.7 20.0 20.0 20.0 20.1 20.1 20.1 20.2 20.2 20.3 20.4 20.4 20.4 20.4 20.4 20.4 20.4 20.5 20.5 20.5 20.6 20.6 20.7 20.7 20.8 20.8 20.9 20.0 20.0 20.0 20.1 20.1 20.1 20.2 20.2 20.3 20.3 20.4 20.5 20.5 20.5 20.5 20.5 20.5 20.6 20.6 20.7 20.7 20.8 20.8 20.9 20.9 21.0 20.0 20.0 20.0 20.1 20.1 20.1 20.2 20.2 20.3 20.3 20.4 20.5 20.6 20.6 20.6 20.6 20.7 20.7 20.7 20.8 20.8 20.9 20.9 21.0 21.1 21.2 20.0 20.0 20.0 20.1 20.1 20.1 20.2 20.2 20.3 20.3 20.4 20.5 20.6 20.6 20.7 20.8 20.8 20.8 20.8 20.9 20.9 21.0 21.1 21.2 21.3 21.4 20.0 20.0 20.0 20.1 20.1 20.1 20.2 20.2 20.3 20.3 20.4 20.4 20.5 20.6 20.7 20.8 20.9 20.9 21.0 21.0 21.1 21.1 21.2 21.4 21.5 21.6 20.0 20.0 20.0 20.1 20.1 20.1 20.2 20.2 20.2 20.3 20.3 20.4 20.5 20.6 20.7 20.9 21.0 21.1 21.1 21.2 21.2 21.3 21.4 21.6 21.7 21.9 20.0 20.0 20.0 20.1 20.1 20.1 20.2 20.2 20.3 20.3 20.3 20.4 20.5 20.6 20.7 20.8 21.0 21.1 21.3 21.4 21.4 21.5 21.6 21.8 22.0 22.1 20.0 20.0 20.1 20.1 20.1 20.1 20.2 20.2 20.3 20.3 20.4 20.4 20.5 20.6 20.7 20.8 21.0 21.1 21.3 21.5 21.6 21.8 21.9 22.0 22.3 22.5 20.0 20.0 20.1 20.1 20.1 20.2 20.2 20.3 20.3 20.4 20.4 20.5 20.5 20.6 20.7 20.8 21.0 21.2 21.4 21.6 21.8 22.0 22.2 22.4 22.6 22.9 20.0 20.0 20.1 20.1 20.1 20.2 20.2 20.3 20.3 20.4 20.4 20.5 20.6 20.7 20.8 20.9 21.0 21.2 21.4 21.7 22.0 22.3 22.5 22.8 23.1 23.4 20.0 20.0 20.1 20.1 20.1 20.2 20.2 20.3 20.3 20.4 20.4 20.5 20.6 20.7 20.8 20.9 21.1 21.3 21.6 21.8 22.1 22.5 22.9 23.3 23.6 24.0 20.0 20.0 20.1 20.1 20.1 20.1 20.2 20.2 20.3 20.3 20.4 20.5 20.6 20.7 20.8 20.9 21.1 21.3 21.6 21.9 22.3 22.7 23.2 23.8 24.4 25.1 20.0 20.0 20.0 20.1 20.1 20.1 20.2 20.2 20.2 20.3 20.4 20.4 20.5 20.6 20.7 20.9 21.0 21.2 21.5 21.9 22.3 22.8 23.4 24.0 25.0 26.1 20.0 20.0 20.0 20.1 20.1 20.1 20.2 20.2 20.2 20.3 20.3 20.4 20.5 20.6 20.7 20.9 21.0 21.2 21.5 21.7 22.2 22.7 23.3 24.0 25.1 26.5 20.0 20.0 20.0 20.1 20.1 20.1 20.2 20.2 20.3 20.3 20.4 20.5 20.5 20.6 20.7 20.9 21.1 21.3 21.4 21.7 22.1 22.6 23.1 23.8 24.8 25.8 20.0 20.0 20.1 20.1 20.1 20.2 20.2 20.3 20.3 20.4 20.4 20.5 20.6 20.7 20.8 21.0 21.1 21.3 21.5 21.7 22.1 22.4 22.9 23.5 24.1 24.7 20.0 20.0 20.1 20.1 20.1 20.2 20.2 20.3 20.4 20.4 20.5 20.6 20.6 20.7 20.9 21.0 21.1 21.3 21.5 21.7 22.0 22.2 22.6 23.0 23.5 23.0 20.0 20.0 20.0 20.0 20.0 20.0 20.0 20.0 20.0 20.0 20.0 20.0 20.0 20.0 20.0 20.0 20.0 20.0 20.0 20.0 20.0 20.0 20.0 20.0 20.0 20.0 20.0 20.0 20.0 20.0 20.0 20.0 20.0 20.0 20.0 20.0 20.0 20.0 20.0 20.0 20.0 20.0 20.0 20.0 20.0 20.0 20.0 20.1 20.1 20.1 20.1 20.1 20.0 20.0 20.0 20.1 20.1 20.0 20.0 20.0 20.0 20.1 20.1 20.1 20.1 20.1 20.1 20.1 20.1 20.1 20.1 20.1 20.1 20.1 20.1 20.1 20.1 20.1 20.0 20.0 20.1 20.1 20.1 20.1 20.1 20.1 20.1 20.1 20.1 20.1 20.1 20.1 20.1 20.1 20.1 20.1 20.1 20.1 20.2 20.2 20.2 20.2 20.2 20.2 20.0 20.0 20.0 20.1 20.1 20.1 20.1 20.1 20.1 20.1 20.1 20.1 20.1 20.1 20.1 20.2 20.2 20.2 20.2 20.2 20.2 20.2 20.2 20.3 20.3 20.3 20.0 20.0 20.0 20.1 20.1 20.2 20.2 20.2 20.2 20.1 20.1 20.2 20.2 20.2 20.2 20.2 20.2 20.2 20.2 20.3 20.3 20.3 20.3 20.3 20.4 20.4 20.0 20.0 20.0 20.1 20.1 20.2 20.2 20.2 20.2 20.2 20.2 20.2 20.2 20.2 20.2 20.2 20.3 20.3 20.3 20.3 20.3 20.4 20.4 20.4 20.4 20.5 20.0 20.0 20.0 20.1 20.1 20.1 20.2 20.2 20.3 20.3 20.3 20.3 20.3 20.3 20.3 20.3 20.3 20.3 20.4 20.4 20.4 20.4 20.5 20.5 20.5 20.6 20.0 20.0 20.0 20.1 20.1 20.1 20.2 20.2 20.3 20.3 20.3 20.3 20.3 20.3 20.3 20.4 20.4 20.4 20.4 20.5 20.5 20.5 20.6 20.6 20.7 20.7 20.0 20.0 20.0 20.1 20.1 20.1 20.2 20.2 20.3 20.3 20.4 20.4 20.4 20.4 20.4 20.4 20.4 20.5 20.5 20.5 20.6 20.6 20.7 20.7 20.8 20.8 20.0 20.0 20.0 20.1 20.1 20.1 20.2 20.2 20.3 20.3 20.4 20.5 20.5 20.5 20.5 20.5 20.5 20.6 20.6 20.6 20.7 20.7 20.8 20.9 20.9 21.0 20.0 20.0 20.0 20.1 20.1 20.1 20.2 20.2 20.3 20.3 20.4 20.5 20.5 20.6 20.6 20.6 20.6 20.6 20.7 20.7 20.8 20.9 20.9 21.0 21.1 21.2 20.0 20.0 20.0 20.1 20.1 20.1 20.2 20.2 20.2 20.3 20.4 20.4 20.5 20.6 20.7 20.8 20.8 20.8 20.8 20.8 20.9 21.0 21.1 21.2 21.3 21.4 20.0 20.0 20.0 20.1 20.1 20.1 20.2 20.2 20.2 20.3 20.3 20.4 20.5 20.6 20.7 20.8 20.9 20.9 20.9 21.0 21.0 21.1 21.2 21.3 21.5 21.6 20.0 20.0 20.0 20.1 20.1 20.1 20.2 20.2 20.2 20.3 20.3 20.4 20.5 20.6 20.7 20.8 21.0 21.1 21.1 21.2 21.2 21.3 21.4 21.6 21.7 21.9 20.0 20.0 20.0 20.1 20.1 20.1 20.2 20.2 20.2 20.3 20.3 20.4 20.5 20.6 20.7 20.8 21.0 21.1 21.3 21.3 21.4 21.5 21.6 21.8 22.0 22.2 20.0 20.0 20.0 20.1 20.1 20.1 20.2 20.2 20.2 20.3 20.3 20.4 20.5 20.5 20.6 20.8 20.9 21.1 21.3 21.5 21.6 21.8 21.9 22.1 22.3 22.5 20.0 20.0 20.1 20.1 20.1 20.1 20.2 20.2 20.3 20.3 20.4 20.4 20.5 20.6 20.7 20.8 20.9 21.1 21.4 21.6 21.8 22.0 22.2 22.4 22.7 23.0 20.0 20.0 20.1 20.1 20.1 20.1 20.2 20.2 20.3 20.3 20.4 20.4 20.5 20.6 20.7 20.8 21.0 21.2 21.4 21.7 22.0 22.3 22.6 22.8 23.2 23.6 20.0 20.0 20.1 20.1 20.1 20.1 20.2 20.2 20.3 20.3 20.4 20.5 20.5 20.6 20.8 20.9 21.1 21.3 21.5 21.8 22.1 22.5 22.9 23.3 23.8 24.2 20.0 20.0 20.0 20.1 20.1 20.1 20.2 20.2 20.2 20.3 20.4 20.4 20.5 20.6 20.8 20.9 21.1 21.3 21.6 22.0 22.3 22.8 23.3 23.8 24.5 25.3 20.0 20.0 20.0 20.1 20.1 20.1 20.1 20.2 20.2 20.3 20.3 20.4 20.5 20.6 20.7 20.9 21.0 21.3 21.6 22.0 22.4 23.0 23.6 24.3 25.2 26.4 20.0 20.0 20.0 20.1 20.1 20.1 20.1 20.2 20.2 20.3 20.3 20.4 20.5 20.6 20.7 20.9 21.0 21.3 21.5 21.9 22.3 22.9 23.6 24.5 25.9 27.4 20.0 20.0 20.0 20.1 20.1 20.1 20.2 20.2 20.2 20.3 20.3 20.4 20.5 20.6 20.7 20.9 21.1 21.3 21.5 21.8 22.2 22.7 23.3 24.2 25.5 26.7 20.0 20.0 20.1 20.1 20.1 20.2 20.2 20.2 20.3 20.3 20.4 20.5 20.6 20.6 20.8 20.9 21.1 21.3 21.5 21.8 22.1 22.5 23.0 23.6 24.3 24.9 20.0 20.0 20.1 20.1 20.1 20.2 20.2 20.3 20.3 20.4 20.5 20.5 20.6 20.7 20.8 21.0 21.1 21.3 21.4 21.7 22.0 22.3 22.7 23.1 23.6 23.1 20.0 20.0 20.0 20.0 20.0 20.0 20.0 20.0 20.0 20.0 20.0 20.0 20.0 20.0 20.0 20.0 20.0 20.0 20.0 20.0 20.0 20.0 20.0 20.0 20.0 20.0 20.0 20.0 20.0 20.0 20.0 20.0 20.0 20.0 20.0 20.0 20.0 20.0 20.0 20.0 20.0 20.0 20.0 20.0 20.0 20.0 20.0 20.1 20.1 20.1 20.1 20.1 20.0 20.0 20.0 20.1 20.0 20.0 20.0 20.0 20.0 20.0 20.0 20.0 20.1 20.1 20.1 20.1 20.1 20.1 20.1 20.1 20.1 20.1 20.1 20.1 20.1 20.1 20.0 20.0 20.0 20.1 20.1 20.1 20.1 20.1 20.1 20.1 20.1 20.1 20.1 20.1 20.1 20.1 20.1 20.1 20.1 20.1 20.1 20.2 20.2 20.2 20.2 20.2 20.0 20.0 20.0 20.1 20.1 20.1 20.1 20.1 20.1 20.1 20.1 20.1 20.1 20.1 20.1 20.1 20.1 20.2 20.2 20.2 20.2 20.2 20.2 20.2 20.3 20.3 20.0 20.0 20.0 20.1 20.1 20.1 20.2 20.2 20.1 20.1 20.1 20.1 20.1 20.2 20.2 20.2 20.2 20.2 20.2 20.2 20.2 20.3 20.3 20.3 20.3 20.4 20.0 20.0 20.0 20.1 20.1 20.1 20.2 20.2 20.2 20.2 20.2 20.2 20.2 20.2 20.2 20.2 20.2 20.2 20.3 20.3 20.3 20.3 20.4 20.4 20.4 20.5 20.0 20.0 20.0 20.1 20.1 20.1 20.2 20.2 20.2 20.3 20.2 20.2 20.2 20.2 20.3 20.3 20.3 20.3 20.3 20.3 20.4 20.4 20.4 20.5 20.5 20.6 20.0 20.0 20.0 20.1 20.1 20.1 20.2 20.2 20.3 20.3 20.3 20.3 20.3 20.3 20.3 20.3 20.3 20.4 20.4 20.4 20.5 20.5 20.5 20.6 20.6 20.7 20.0 20.0 20.0 20.1 20.1 20.1 20.1 20.2 20.3 20.3 20.4 20.4 20.4 20.4 20.4 20.4 20.4 20.4 20.5 20.5 20.5 20.6 20.6 20.7 20.7 20.8 20.0 20.0 20.0 20.1 20.1 20.1 20.1 20.2 20.2 20.3 20.4 20.4 20.5 20.5 20.5 20.5 20.5 20.5 20.5 20.6 20.6 20.7 20.8 20.8 20.9 21.0 20.0 20.0 20.0 20.1 20.1 20.1 20.1 20.2 20.2 20.3 20.4 20.4 20.5 20.5 20.6 20.6 20.6 20.6 20.6 20.7 20.7 20.8 20.9 21.0 21.0 21.2 20.0 20.0 20.0 20.1 20.1 20.1 20.1 20.2 20.2 20.3 20.3 20.4 20.5 20.6 20.7 20.7 20.7 20.7 20.8 20.8 20.9 20.9 21.0 21.1 21.2 21.4 20.0 20.0 20.0 20.1 20.1 20.1 20.1 20.2 20.2 20.3 20.3 20.4 20.5 20.6 20.7 20.8 20.8 20.9 20.9 21.0 21.0 21.1 21.2 21.3 21.5 21.6 20.0 20.0 20.0 20.1 20.1 20.1 20.1 20.2 20.2 20.2 20.3 20.4 20.4 20.6 20.7 20.8 20.9 21.0 21.1 21.1 21.2 21.3 21.4 21.6 21.7 21.9 20.0 20.0 20.0 20.1 20.1 20.1 20.1 20.2 20.2 20.2 20.3 20.3 20.4 20.5 20.6 20.8 20.9 21.1 21.2 21.3 21.4 21.5 21.7 21.8 22.0 22.3 20.0 20.0 20.0 20.1 20.1 20.1 20.1 20.2 20.2 20.2 20.3 20.3 20.4 20.5 20.6 20.7 20.9 21.1 21.3 21.5 21.6 21.8 22.0 22.2 22.4 22.7 20.0 20.0 20.0 20.1 20.1 20.1 20.1 20.2 20.2 20.2 20.3 20.3 20.4 20.5 20.7 20.8 21.0 21.1 21.3 21.6 21.8 22.1 22.3 22.5 22.9 23.3 20.0 20.0 20.0 20.1 20.1 20.1 20.1 20.2 20.2 20.2 20.3 20.4 20.4 20.6 20.8 21.0 21.1 21.2 21.4 21.7 22.0 22.3 22.6 23.0 23.4 24.1 20.0 20.0 20.0 20.1 20.1 20.1 20.1 20.2 20.2 20.3 20.3 20.4 20.5 20.6 20.9 21.2 21.2 21.4 21.5 21.8 22.2 22.6 23.0 23.5 24.1 24.9 20.0 20.0 20.0 20.1 20.1 20.1 20.1 20.1 20.2 20.3 20.3 20.4 20.5 20.6 21.0 21.3 21.3 21.5 21.7 22.0 22.4 22.9 23.5 24.1 25.0 25.9 20.0 20.0 20.0 20.1 20.1 20.1 20.1 20.1 20.2 20.2 20.3 20.4 20.5 20.6 21.1 21.4 21.4 21.5 21.8 22.1 22.5 23.1 23.9 24.8 26.1 27.5 20.0 20.0 20.0 20.0 20.1 20.1 20.1 20.1 20.2 20.2 20.3 20.4 20.5 20.6 21.0 21.3 21.3 21.4 21.7 22.0 22.5 23.1 23.9 25.1 26.9 28.9 20.0 20.0 20.0 20.1 20.1 20.1 20.1 20.2 20.2 20.2 20.3 20.4 20.5 20.6 20.9 21.1 21.2 21.4 21.6 21.9 22.4 22.8 23.6 24.6 26.3 27.9 20.0 20.0 20.0 20.1 20.1 20.1 20.2 20.2 20.2 20.3 20.4 20.4 20.5 20.6 20.8 20.9 21.1 21.3 21.5 21.8 22.2 22.6 23.1 23.8 24.7 25.5 20.0 20.0 20.1 20.1 20.1 20.1 20.2 20.2 20.3 20.3 20.4 20.5 20.6 20.6 20.8 20.9 21.0 21.2 21.4 21.7 22.0 22.3 22.7 23.3 23.9 23.4 20.0 20.0 20.0 20.0 20.0 20.0 20.0 20.0 20.0 20.0 20.0 20.0 20.0 20.0 20.0 20.0 20.0 20.0 20.0 20.0 20.0 20.0 20.0 20.0 20.0 20.0 20.0 20.0 20.0 20.0 20.0 20.0 20.0 20.0 20.0 20.0 20.0 20.0 20.0 20.0 20.0 20.0 20.0 20.0 20.0 20.0 20.1 20.1 20.1 20.1 20.1 20.1 20.0 20.0 20.0 20.0 20.0 20.0 20.0 20.0 20.0 20.0 20.0 20.0 20.1 20.1 20.1 20.1 20.1 20.1 20.1 20.1 20.1 20.1 20.1 20.1 20.1 20.1 20.0 20.0 20.1 20.1 20.1 20.1 20.1 20.1 20.1 20.1 20.1 20.1 20.1 20.1 20.1 20.1 20.1 20.1 20.1 20.1 20.1 20.2 20.2 20.2 20.2 20.2 20.0 20.0 20.1 20.1 20.1 20.1 20.1 20.1 20.1 20.2 20.1 20.1 20.1 20.1 20.1 20.1 20.1 20.1 20.2 20.2 20.2 20.2 20.2 20.2 20.3 20.3 20.0 20.0 20.1 20.1 20.1 20.1 20.1 20.1 20.2 20.2 20.2 20.2 20.2 20.2 20.2 20.2 20.2 20.2 20.2 20.2 20.3 20.3 20.3 20.3 20.3 20.4 20.0 20.0 20.0 20.1 20.1 20.1 20.2 20.2 20.2 20.2 20.2 20.2 20.2 20.2 20.2 20.2 20.2 20.2 20.3 20.3 20.3 20.4 20.4 20.4 20.4 20.5 20.0 20.0 20.0 20.1 20.1 20.1 20.2 20.2 20.2 20.2 20.3 20.3 20.3 20.3 20.3 20.3 20.3 20.3 20.3 20.4 20.4 20.4 20.5 20.5 20.5 20.6 20.0 20.0 20.0 20.1 20.1 20.1 20.2 20.2 20.2 20.3 20.3 20.3 20.3 20.3 20.3 20.3 20.4 20.4 20.4 20.4 20.5 20.5 20.6 20.6 20.7 20.7 20.0 20.0 20.0 20.1 20.1 20.1 20.2 20.2 20.2 20.3 20.3 20.4 20.4 20.4 20.4 20.4 20.4 20.4 20.5 20.5 20.6 20.6 20.7 20.7 20.8 20.9 20.0 20.0 20.0 20.1 20.1 20.1 20.2 20.2 20.2 20.3 20.3 20.4 20.4 20.5 20.5 20.5 20.5 20.5 20.5 20.6 20.7 20.8 20.8 20.9 20.9 21.0 20.0 20.0 20.0 20.1 20.1 20.1 20.1 20.2 20.2 20.3 20.3 20.4 20.5 20.5 20.6 20.6 20.6 20.6 20.6 20.7 20.8 20.9 20.9 21.0 21.1 21.2 20.0 20.0 20.0 20.1 20.1 20.1 20.1 20.2 20.2 20.3 20.3 20.4 20.5 20.6 20.6 20.7 20.7 20.7 20.8 20.8 20.9 21.0 21.1 21.2 21.3 21.4 20.0 20.0 20.0 20.1 20.1 20.1 20.1 20.2 20.2 20.3 20.3 20.4 20.5 20.6 20.7 20.7 20.8 20.9 20.9 21.0 21.0 21.2 21.3 21.4 21.5 21.7 20.0 20.0 20.0 20.1 20.1 20.1 20.1 20.2 20.2 20.2 20.3 20.4 20.5 20.5 20.7 20.8 20.9 21.0 21.1 21.1 21.2 21.3 21.5 21.6 21.8 22.0 20.0 20.0 20.0 20.1 20.1 20.1 20.1 20.2 20.2 20.2 20.3 20.3 20.4 20.5 20.6 20.8 20.9 21.1 21.2 21.3 21.4 21.6 21.7 21.9 22.1 22.4 20.0 20.0 20.0 20.0 20.1 20.1 20.1 20.1 20.2 20.2 20.3 20.3 20.4 20.5 20.7 20.8 20.9 21.1 21.3 21.4 21.6 21.8 22.0 22.3 22.6 22.9 20.0 20.0 20.0 20.0 20.1 20.1 20.1 20.1 20.2 20.3 20.3 20.3 20.4 20.5 20.9 21.2 21.1 21.2 21.3 21.5 21.8 22.1 22.4 22.7 23.1 23.5 20.0 20.0 20.0 20.1 20.1 20.1 20.1 20.2 20.2 20.3 20.3 20.4 20.4 20.4 21.3 21.9 21.4 21.3 21.5 21.7 22.5 23.1 23.1 23.3 23.7 24.7 20.0 20.0 20.0 20.1 20.1 20.1 20.1 20.2 20.3 20.3 20.4 20.4 20.5 20.5 21.6 22.4 21.8 21.6 21.6 21.9 22.8 23.5 23.6 24.2 25.1 26.4 20.0 20.0 20.0 20.1 20.1 20.1 20.1 20.2 20.3 20.4 20.4 20.4 20.5 20.5 21.9 22.8 22.0 21.8 21.8 22.1 22.6 23.2 23.9 25.1 26.9 29.0 20.0 20.0 20.0 20.1 20.1 20.1 20.1 20.2 20.3 20.4 20.4 20.4 20.5 20.5 22.0 23.0 22.2 21.9 22.0 22.2 22.6 23.2 24.2 26.1 29.0 32.8 20.0 20.0 20.0 20.0 20.1 20.1 20.1 20.2 20.3 20.4 20.4 20.5 20.5 20.5 22.0 23.0 22.2 21.9 22.0 22.2 22.7 23.2 24.1 26.0 28.9 33.2 20.0 20.0 20.0 20.1 20.1 20.1 20.1 20.2 20.2 20.3 20.4 20.5 20.6 20.6 21.5 22.2 21.8 21.7 21.8 22.1 22.5 23.0 23.7 24.8 26.5 29.2 20.0 20.0 20.0 20.1 20.1 20.1 20.2 20.2 20.2 20.3 20.4 20.5 20.6 20.7 21.0 21.2 21.3 21.4 21.6 21.9 22.2 22.6 23.3 23.9 24.9 26.0 20.0 20.0 20.0 20.1 20.1 20.2 20.2 20.2 20.3 20.3 20.4 20.5 20.6 20.7 20.8 20.9 21.1 21.2 21.4 21.7 22.0 22.4 22.8 23.4 24.1 23.7 20.0 20.0 20.0 20.0 20.0 20.0 20.0 20.0 20.0 20.0 20.0 20.0 20.0 20.0 20.0 20.0 20.0 20.0 20.0 20.0 20.0 20.0 20.0 20.0 20.0 20.0 20.0 20.0 20.0 20.0 20.0 20.0 20.0 20.0 20.0 20.0 20.0 20.0 20.0 20.0 20.0 20.0 20.0 20.0 20.0 20.0 20.1 20.1 20.1 20.1 20.1 20.1 20.0 20.0 20.0 20.0 20.0 20.0 20.0 20.0 20.0 20.0 20.1 20.1 20.1 20.1 20.1 20.1 20.1 20.1 20.1 20.1 20.1 20.1 20.1 20.1 20.1 20.2 20.0 20.0 20.1 20.1 20.1 20.1 20.1 20.1 20.1 20.1 20.1 20.1 20.1 20.1 20.1 20.1 20.1 20.1 20.1 20.1 20.2 20.2 20.2 20.2 20.2 20.2 20.0 20.0 20.1 20.1 20.1 20.1 20.1 20.1 20.1 20.2 20.2 20.1 20.1 20.1 20.1 20.1 20.2 20.2 20.2 20.2 20.2 20.2 20.2 20.3 20.3 20.3 20.0 20.0 20.1 20.1 20.1 20.2 20.2 20.2 20.2 20.2 20.2 20.2 20.2 20.2 20.2 20.2 20.2 20.2 20.2 20.3 20.3 20.3 20.3 20.3 20.4 20.4 20.0 20.0 20.0 20.1 20.1 20.2 20.2 20.2 20.2 20.2 20.3 20.3 20.3 20.2 20.2 20.3 20.3 20.3 20.3 20.3 20.4 20.4 20.4 20.4 20.5 20.5 20.0 20.0 20.0 20.1 20.1 20.1 20.2 20.2 20.2 20.3 20.3 20.3 20.3 20.3 20.3 20.3 20.3 20.3 20.4 20.4 20.5 20.5 20.5 20.5 20.6 20.6 20.0 20.0 20.0 20.1 20.1 20.1 20.2 20.2 20.3 20.3 20.3 20.3 20.4 20.4 20.4 20.4 20.4 20.4 20.4 20.5 20.6 20.6 20.6 20.7 20.7 20.8 20.0 20.0 20.0 20.1 20.1 20.1 20.2 20.2 20.3 20.3 20.3 20.4 20.4 20.4 20.5 20.5 20.5 20.5 20.5 20.6 20.7 20.7 20.8 20.8 20.9 21.0 20.0 20.0 20.0 20.1 20.1 20.1 20.2 20.2 20.3 20.3 20.4 20.4 20.5 20.5 20.5 20.6 20.6 20.6 20.6 20.7 20.8 20.9 20.9 20.9 21.0 21.1 20.0 20.0 20.0 20.1 20.1 20.1 20.2 20.2 20.3 20.3 20.4 20.4 20.5 20.5 20.6 20.6 20.7 20.7 20.7 20.8 20.9 21.0 21.1 21.1 21.2 21.3 20.0 20.0 20.0 20.1 20.1 20.1 20.2 20.2 20.3 20.3 20.4 20.4 20.5 20.6 20.6 20.7 20.7 20.8 20.8 20.9 21.1 21.2 21.2 21.3 21.4 21.5 20.0 20.0 20.0 20.1 20.1 20.1 20.2 20.2 20.3 20.3 20.4 20.4 20.5 20.6 20.7 20.7 20.8 20.9 21.0 21.0 21.2 21.3 21.4 21.5 21.6 21.8 20.0 20.0 20.0 20.1 20.1 20.1 20.2 20.2 20.2 20.3 20.4 20.4 20.5 20.6 20.7 20.8 20.9 21.0 21.1 21.2 21.3 21.5 21.6 21.8 21.9 22.1 20.0 20.0 20.0 20.1 20.1 20.1 20.1 20.2 20.2 20.3 20.3 20.4 20.5 20.6 20.7 20.8 20.9 21.1 21.2 21.3 21.5 21.7 21.9 22.0 22.2 22.5 20.0 20.0 20.0 20.1 20.1 20.1 20.1 20.2 20.2 20.3 20.4 20.4 20.5 20.6 20.8 20.9 21.0 21.1 21.3 21.5 21.6 21.9 22.1 22.4 22.7 23.0 20.0 20.0 20.0 20.1 20.1 20.1 20.1 20.2 20.3 20.3 20.3 20.4 20.6 20.7 21.1 21.4 21.3 21.3 21.4 21.6 21.9 22.3 22.6 22.9 23.2 23.7 20.0 20.0 20.0 20.1 20.1 20.1 20.1 20.3 20.4 20.3 20.2 20.5 20.8 20.8 21.6 22.3 21.8 21.6 21.6 21.8 22.7 23.6 23.5 23.6 23.9 25.3 20.0 20.0 20.0 20.1 20.1 20.1 20.1 20.4 20.5 20.3 20.2 20.5 20.9 20.9 22.2 23.1 22.4 22.0 21.9 22.0 23.2 24.1 24.1 24.9 26.8 32.7 20.0 20.0 20.0 20.1 20.1 20.1 20.1 20.4 20.5 20.3 20.2 20.5 20.9 21.0 22.7 23.9 23.0 22.4 22.2 22.3 22.9 23.5 24.2 26.0 29.8 39.5 20.0 20.0 20.0 20.1 20.1 20.1 20.1 20.4 20.6 20.4 20.2 20.5 21.0 21.0 22.9 24.2 23.2 22.5 22.4 22.5 22.9 23.4 24.5 27.2 31.9 43.1 20.0 20.0 20.0 20.1 20.1 20.1 20.1 20.4 20.6 20.4 20.3 20.6 21.0 21.0 22.9 24.3 23.3 22.6 22.4 22.6 22.9 23.4 24.3 26.9 31.0 40.2 20.0 20.0 20.0 20.1 20.1 20.1 20.1 20.3 20.4 20.4 20.4 20.6 20.9 21.0 22.2 23.2 22.6 22.2 22.2 22.4 22.7 23.1 23.8 25.2 27.1 30.7 20.0 20.0 20.1 20.1 20.1 20.2 20.2 20.3 20.3 20.5 20.6 20.7 20.8 20.9 21.3 21.6 21.6 21.7 21.8 22.1 22.4 22.8 23.4 24.1 25.1 26.5 20.0 20.0 20.1 20.1 20.1 20.2 20.2 20.3 20.3 20.4 20.5 20.6 20.7 20.8 20.9 21.1 21.2 21.4 21.6 21.8 22.1 22.5 22.9 23.5 24.2 23.9 20.0 20.0 20.0 20.0 20.0 20.0 20.0 20.0 20.0 20.0 20.0 20.0 20.0 20.0 20.0 20.0 20.0 20.0 20.0 20.0 20.0 20.0 20.0 20.0 20.0 20.0 20.0 20.0 20.0 20.0 20.0 20.0 20.0 20.0 20.0 20.0 20.0 20.0 20.0 20.0 20.0 20.0 20.0 20.0 20.0 20.1 20.1 20.1 20.1 20.1 20.1 20.1 20.0 20.0 20.0 20.1 20.1 20.0 20.0 20.0 20.1 20.1 20.1 20.1 20.1 20.1 20.1 20.1 20.1 20.1 20.1 20.1 20.1 20.1 20.1 20.1 20.1 20.2 20.0 20.0 20.1 20.1 20.1 20.1 20.1 20.1 20.1 20.1 20.1 20.1 20.1 20.1 20.1 20.1 20.1 20.1 20.1 20.2 20.2 20.2 20.2 20.2 20.2 20.3 20.0 20.0 20.1 20.1 20.1 20.1 20.1 20.1 20.1 20.1 20.1 20.1 20.1 20.1 20.2 20.2 20.2 20.2 20.2 20.2 20.3 20.3 20.3 20.3 20.3 20.4 20.0 20.0 20.1 20.1 20.1 20.2 20.2 20.2 20.2 20.2 20.2 20.2 20.2 20.2 20.2 20.2 20.2 20.3 20.3 20.3 20.3 20.4 20.4 20.4 20.4 20.5 20.0 20.0 20.0 20.1 20.1 20.2 20.2 20.2 20.2 20.2 20.3 20.3 20.3 20.3 20.3 20.3 20.3 20.3 20.4 20.4 20.4 20.5 20.5 20.5 20.5 20.6 20.0 20.0 20.0 20.1 20.1 20.2 20.2 20.2 20.3 20.3 20.3 20.3 20.4 20.4 20.4 20.4 20.4 20.4 20.4 20.5 20.5 20.6 20.6 20.6 20.6 20.7 20.0 20.0 20.0 20.1 20.1 20.2 20.2 20.2 20.3 20.3 20.4 20.4 20.4 20.4 20.5 20.5 20.5 20.5 20.5 20.6 20.6 20.7 20.7 20.7 20.8 20.9 20.0 20.0 20.0 20.1 20.1 20.2 20.2 20.3 20.3 20.3 20.4 20.4 20.5 20.5 20.5 20.6 20.6 20.6 20.7 20.7 20.8 20.8 20.8 20.9 20.9 21.0 20.0 20.0 20.0 20.1 20.1 20.2 20.2 20.3 20.3 20.4 20.4 20.5 20.5 20.5 20.6 20.6 20.7 20.7 20.8 20.8 20.9 20.9 21.0 21.0 21.1 21.2 20.0 20.0 20.0 20.1 20.1 20.2 20.2 20.3 20.3 20.4 20.4 20.5 20.5 20.6 20.6 20.7 20.8 20.8 20.8 21.0 21.1 21.1 21.1 21.2 21.3 21.4 20.0 20.0 20.0 20.1 20.1 20.2 20.2 20.3 20.3 20.4 20.4 20.5 20.6 20.6 20.7 20.7 20.8 20.9 20.9 21.1 21.2 21.3 21.3 21.4 21.5 21.6 20.0 20.0 20.0 20.1 20.1 20.2 20.2 20.3 20.3 20.4 20.4 20.5 20.6 20.6 20.7 20.8 20.9 21.0 21.0 21.2 21.3 21.5 21.5 21.6 21.7 21.9 20.0 20.0 20.0 20.1 20.1 20.1 20.2 20.2 20.3 20.4 20.4 20.5 20.6 20.7 20.7 20.8 20.9 21.0 21.1 21.3 21.4 21.6 21.8 21.9 22.0 22.2 20.0 20.0 20.0 20.1 20.1 20.1 20.2 20.2 20.3 20.4 20.4 20.5 20.6 20.7 20.8 20.9 21.0 21.1 21.3 21.4 21.6 21.8 22.0 22.2 22.4 22.6 20.0 20.0 20.0 20.1 20.1 20.1 20.2 20.3 20.4 20.4 20.5 20.6 20.6 20.7 20.9 21.0 21.1 21.2 21.4 21.5 21.7 21.9 22.2 22.5 22.8 23.3 20.0 20.0 20.0 20.1 20.1 20.1 20.2 20.4 20.5 20.5 20.5 20.7 20.8 20.9 21.1 21.2 21.3 21.4 21.5 21.7 21.9 22.3 22.7 23.1 23.7 24.7 20.0 20.0 20.1 20.1 20.1 20.1 20.2 20.5 20.6 20.5 20.4 20.8 21.1 21.2 21.5 21.7 21.7 21.7 21.8 21.9 22.4 23.2 23.6 23.8 24.9 28.3 20.0 20.0 20.1 20.1 20.1 20.1 20.2 20.5 20.7 20.5 20.5 20.9 21.3 21.5 22.0 22.5 22.5 22.3 22.2 22.3 22.9 23.7 24.2 25.0 29.7 42.9 20.0 20.0 20.1 20.1 20.1 20.1 20.2 20.5 20.7 20.5 20.5 20.9 21.4 21.7 22.4 23.3 23.4 23.0 22.6 22.6 23.0 23.7 24.5 26.8 35.3 61.5 20.0 20.0 20.1 20.1 20.1 20.1 20.2 20.6 20.8 20.5 20.5 20.9 21.4 21.7 22.6 23.7 23.9 23.3 22.9 22.9 23.2 23.8 25.7 29.7 40.1 76.4 20.0 20.0 20.0 20.1 20.1 20.1 20.2 20.6 20.8 20.5 20.5 20.9 21.4 21.7 22.6 23.7 23.8 23.3 22.9 23.0 23.2 23.8 25.6 29.9 39.6 69.1 20.0 20.0 20.0 20.1 20.1 20.1 20.2 20.4 20.6 20.6 20.6 20.9 21.2 21.4 22.0 22.7 23.0 22.9 22.7 22.8 22.9 23.4 24.2 26.6 31.0 42.5 20.0 20.0 20.1 20.1 20.1 20.2 20.2 20.4 20.5 20.6 20.7 20.8 21.0 21.1 21.3 21.6 21.9 22.1 22.2 22.3 22.6 23.0 23.5 24.4 25.6 28.8 20.0 20.0 20.1 20.1 20.2 20.2 20.3 20.4 20.4 20.5 20.6 20.7 20.8 20.9 21.1 21.2 21.4 21.6 21.8 22.0 22.3 22.6 23.1 23.6 24.3 24.0 20.0 20.0 20.0 20.0 20.0 20.0 20.0 20.0 20.0 20.0 20.0 20.0 20.0 20.0 20.0 20.0 20.0 20.0 20.0 20.0 20.0 20.0 20.0 20.0 20.0 20.0 20.0 20.0 20.0 20.0 20.0 20.0 20.0 20.0 20.0 20.0 20.0 20.0 20.0 20.0 20.0 20.0 20.0 20.1 20.1 20.1 20.1 20.1 20.1 20.1 20.1 20.1 20.0 20.0 20.1 20.1 20.1 20.1 20.1 20.1 20.1 20.1 20.1 20.1 20.1 20.1 20.1 20.1 20.1 20.1 20.1 20.1 20.1 20.1 20.1 20.1 20.2 20.2 20.0 20.0 20.1 20.1 20.1 20.1 20.1 20.1 20.1 20.1 20.1 20.1 20.1 20.1 20.1 20.2 20.2 20.2 20.2 20.2 20.2 20.2 20.2 20.2 20.2 20.3 20.0 20.0 20.1 20.1 20.1 20.2 20.2 20.2 20.2 20.2 20.2 20.2 20.2 20.2 20.2 20.2 20.2 20.2 20.2 20.3 20.3 20.3 20.3 20.3 20.3 20.4 20.0 20.0 20.1 20.1 20.2 20.2 20.2 20.2 20.2 20.2 20.2 20.2 20.3 20.3 20.3 20.3 20.3 20.3 20.3 20.3 20.4 20.4 20.4 20.4 20.4 20.5 20.0 20.0 20.1 20.1 20.1 20.2 20.2 20.3 20.3 20.3 20.3 20.3 20.3 20.3 20.4 20.4 20.4 20.4 20.4 20.4 20.5 20.5 20.5 20.5 20.6 20.6 20.0 20.0 20.1 20.1 20.1 20.2 20.2 20.3 20.3 20.3 20.4 20.4 20.4 20.4 20.4 20.5 20.5 20.5 20.5 20.5 20.6 20.6 20.6 20.7 20.7 20.8 20.0 20.0 20.1 20.1 20.1 20.2 20.2 20.3 20.3 20.4 20.4 20.4 20.5 20.5 20.5 20.6 20.6 20.6 20.6 20.6 20.7 20.7 20.7 20.8 20.8 20.9 20.0 20.0 20.1 20.1 20.1 20.2 20.3 20.3 20.4 20.4 20.4 20.5 20.5 20.6 20.6 20.6 20.7 20.7 20.8 20.8 20.8 20.8 20.9 20.9 21.0 21.1 20.0 20.0 20.1 20.1 20.1 20.2 20.3 20.3 20.4 20.4 20.5 20.5 20.6 20.6 20.7 20.7 20.8 20.8 20.9 20.9 21.0 21.0 21.0 21.1 21.1 21.2 20.0 20.0 20.1 20.1 20.1 20.2 20.3 20.3 20.4 20.4 20.5 20.5 20.6 20.7 20.7 20.8 20.8 20.9 21.0 21.1 21.1 21.2 21.2 21.2 21.3 21.4 20.0 20.0 20.1 20.1 20.1 20.2 20.3 20.3 20.4 20.5 20.5 20.6 20.6 20.7 20.8 20.8 20.9 21.0 21.1 21.2 21.3 21.3 21.4 21.5 21.5 21.7 20.0 20.0 20.1 20.1 20.1 20.2 20.2 20.3 20.4 20.5 20.5 20.6 20.7 20.7 20.8 20.9 21.0 21.1 21.2 21.3 21.4 21.5 21.6 21.7 21.8 21.9 20.0 20.0 20.1 20.1 20.1 20.2 20.2 20.3 20.4 20.5 20.5 20.6 20.7 20.8 20.9 20.9 21.0 21.1 21.3 21.4 21.6 21.7 21.8 21.9 22.0 22.2 20.0 20.0 20.1 20.1 20.1 20.2 20.2 20.3 20.4 20.5 20.5 20.6 20.7 20.8 20.9 21.0 21.1 21.2 21.3 21.5 21.7 21.9 22.0 22.2 22.4 22.8 20.0 20.0 20.1 20.1 20.2 20.2 20.3 20.3 20.4 20.5 20.6 20.7 20.8 20.9 21.0 21.1 21.2 21.4 21.5 21.6 21.8 22.0 22.3 22.5 22.9 23.5 20.0 20.0 20.1 20.1 20.2 20.2 20.3 20.4 20.6 20.6 20.7 20.8 20.9 21.0 21.1 21.2 21.3 21.5 21.6 21.8 22.0 22.3 22.7 23.1 23.9 25.3 20.0 20.0 20.1 20.1 20.2 20.2 20.3 20.5 20.7 20.7 20.8 21.0 21.1 21.2 21.3 21.4 21.6 21.7 21.9 22.0 22.3 22.8 23.4 23.9 25.7 30.0 20.0 20.0 20.1 20.1 20.2 20.2 20.3 20.5 20.7 20.8 20.9 21.1 21.2 21.4 21.6 21.9 22.2 22.2 22.3 22.5 22.8 23.4 24.1 25.1 33.2 50.2 20.0 20.0 20.1 20.1 20.2 20.2 20.2 20.5 20.7 20.8 20.9 21.1 21.3 21.5 21.8 22.5 23.1 23.2 23.0 22.9 23.2 23.8 24.8 28.2 47.7 93.1 20.0 20.0 20.1 20.1 20.1 20.2 20.2 20.5 20.7 20.8 20.9 21.1 21.3 21.5 21.9 22.8 23.7 23.7 23.4 23.3 23.5 24.1 26.9 36.3 68.0 141.0 20.0 20.0 20.1 20.1 20.1 20.2 20.2 20.5 20.8 20.8 20.9 21.1 21.3 21.5 21.8 22.6 23.6 23.7 23.4 23.4 23.6 24.1 27.3 42.5 78.0 138.3 20.0 20.0 20.1 20.1 20.1 20.2 20.3 20.4 20.6 20.7 20.9 21.0 21.2 21.4 21.6 22.2 23.0 23.3 23.1 23.1 23.3 23.7 25.1 34.6 55.4 79.9 20.0 20.0 20.1 20.1 20.2 20.3 20.3 20.4 20.6 20.7 20.8 20.9 21.0 21.2 21.3 21.6 22.1 22.3 22.4 22.6 22.8 23.2 23.7 25.2 29.9 36.2 20.0 20.0 20.1 20.2 20.2 20.3 20.4 20.5 20.5 20.6 20.7 20.8 20.9 21.0 21.2 21.3 21.5 21.8 22.0 22.2 22.5 22.8 23.2 23.7 24.4 24.3 20.0 20.0 20.0 20.0 20.0 20.0 20.0 20.0 20.0 20.0 20.0 20.0 20.0 20.0 20.0 20.0 20.0 20.0 20.0 20.0 20.0 20.0 20.0 20.0 20.0 20.0 20.0 20.0 20.0 20.0 20.0 20.0 20.0 20.0 20.0 20.0 20.0 20.0 20.0 20.0 20.1 20.1 20.1 20.1 20.1 20.1 20.1 20.1 20.1 20.1 20.1 20.1 20.0 20.0 20.1 20.1 20.1 20.1 20.1 20.1 20.1 20.1 20.1 20.1 20.1 20.1 20.1 20.1 20.1 20.1 20.1 20.1 20.1 20.1 20.1 20.1 20.2 20.2 20.0 20.0 20.1 20.1 20.1 20.1 20.1 20.1 20.1 20.1 20.1 20.1 20.1 20.1 20.2 20.2 20.2 20.2 20.2 20.2 20.2 20.2 20.2 20.2 20.2 20.3 20.0 20.0 20.1 20.1 20.2 20.2 20.2 20.2 20.2 20.2 20.2 20.2 20.2 20.2 20.2 20.2 20.2 20.2 20.2 20.3 20.3 20.3 20.3 20.3 20.4 20.4 20.0 20.0 20.1 20.1 20.2 20.2 20.2 20.3 20.3 20.3 20.3 20.3 20.3 20.3 20.3 20.3 20.3 20.3 20.3 20.3 20.4 20.4 20.4 20.4 20.5 20.5 20.0 20.0 20.1 20.1 20.2 20.2 20.3 20.3 20.3 20.3 20.3 20.4 20.4 20.4 20.4 20.4 20.4 20.4 20.4 20.4 20.5 20.5 20.5 20.6 20.6 20.7 20.0 20.0 20.1 20.1 20.2 20.2 20.3 20.3 20.4 20.4 20.4 20.4 20.5 20.5 20.5 20.5 20.5 20.5 20.5 20.6 20.6 20.6 20.6 20.7 20.8 20.8 20.0 20.0 20.1 20.1 20.2 20.3 20.3 20.3 20.4 20.4 20.5 20.5 20.5 20.6 20.6 20.6 20.6 20.7 20.7 20.7 20.7 20.7 20.8 20.8 20.9 21.0 20.0 20.0 20.1 20.1 20.2 20.3 20.3 20.4 20.4 20.5 20.5 20.5 20.6 20.6 20.7 20.7 20.7 20.8 20.8 20.8 20.9 20.9 20.9 20.9 21.0 21.1 20.0 20.0 20.1 20.1 20.2 20.2 20.3 20.4 20.4 20.5 20.5 20.6 20.6 20.7 20.7 20.8 20.9 20.9 21.0 21.0 21.0 21.1 21.1 21.1 21.2 21.3 20.0 20.0 20.1 20.1 20.2 20.2 20.3 20.4 20.4 20.5 20.6 20.6 20.7 20.7 20.8 20.9 20.9 21.0 21.1 21.1 21.2 21.2 21.3 21.3 21.4 21.5 20.0 20.0 20.1 20.1 20.2 20.2 20.3 20.4 20.5 20.5 20.6 20.7 20.7 20.8 20.9 20.9 21.0 21.1 21.2 21.3 21.4 21.4 21.5 21.6 21.7 21.8 20.0 20.0 20.1 20.1 20.2 20.2 20.3 20.4 20.5 20.6 20.6 20.7 20.8 20.8 20.9 21.0 21.1 21.2 21.3 21.4 21.5 21.6 21.7 21.8 22.0 22.1 20.0 20.0 20.1 20.1 20.2 20.2 20.3 20.4 20.5 20.6 20.6 20.7 20.8 20.9 21.0 21.1 21.2 21.3 21.4 21.5 21.7 21.8 21.9 22.1 22.2 22.4 20.0 20.0 20.1 20.1 20.2 20.3 20.3 20.4 20.5 20.6 20.7 20.8 20.9 21.0 21.0 21.1 21.2 21.4 21.5 21.6 21.8 22.0 22.2 22.3 22.5 22.8 20.0 20.0 20.1 20.1 20.2 20.3 20.4 20.4 20.5 20.6 20.7 20.8 20.9 21.0 21.1 21.2 21.4 21.5 21.6 21.7 21.9 22.1 22.4 22.6 22.9 23.5 20.0 20.0 20.1 20.1 20.2 20.3 20.4 20.5 20.6 20.7 20.8 20.9 21.0 21.1 21.2 21.3 21.5 21.6 21.8 22.0 22.1 22.4 22.7 23.0 23.6 24.8 20.0 20.0 20.1 20.2 20.2 20.3 20.4 20.5 20.6 20.7 20.8 20.9 21.1 21.2 21.4 21.5 21.6 21.8 22.0 22.3 22.5 22.8 23.5 24.3 25.9 28.8 20.0 20.0 20.1 20.2 20.2 20.3 20.4 20.5 20.6 20.7 20.9 21.0 21.2 21.3 21.6 21.8 22.0 22.2 22.5 22.7 23.0 23.4 24.5 27.4 35.1 47.6 20.0 20.0 20.1 20.1 20.2 20.3 20.3 20.5 20.6 20.7 20.8 21.0 21.2 21.4 21.6 22.0 22.7 23.1 23.3 23.3 23.5 24.0 26.8 37.4 61.2 100.6 20.0 20.0 20.1 20.1 20.2 20.2 20.3 20.4 20.6 20.7 20.8 21.0 21.1 21.4 21.6 22.1 23.0 23.7 23.8 23.7 23.9 24.7 30.5 55.2 107.1 177.3 20.0 20.0 20.1 20.1 20.2 20.2 20.3 20.4 20.6 20.7 20.8 21.0 21.1 21.4 21.6 22.1 22.9 23.5 23.7 23.7 23.9 25.3 32.0 62.3 123.4 185.5 20.0 20.0 20.1 20.1 20.2 20.3 20.3 20.4 20.6 20.7 20.8 21.0 21.1 21.3 21.6 21.9 22.5 23.0 23.1 23.3 23.6 24.6 28.7 44.8 76.7 103.0 20.0 20.0 20.1 20.2 20.2 20.3 20.4 20.5 20.6 20.7 20.8 21.0 21.1 21.3 21.4 21.7 22.0 22.2 22.4 22.7 23.1 23.5 24.6 27.0 33.1 40.4 20.0 20.1 20.1 20.2 20.3 20.3 20.4 20.5 20.6 20.7 20.8 20.9 21.0 21.2 21.3 21.5 21.7 21.9 22.1 22.4 22.7 23.0 23.3 23.7 24.6 25.6 20.0 20.0 20.0 20.0 20.0 20.0 20.0 20.0 20.0 20.0 20.0 20.0 20.0 20.0 20.0 20.0 20.0 20.0 20.0 20.0 20.1 20.1 20.0 20.0 20.0 20.0 20.0 20.0 20.0 20.0 20.0 20.0 20.0 20.1 20.1 20.1 20.1 20.1 20.1 20.1 20.1 20.1 20.1 20.1 20.1 20.1 20.1 20.1 20.1 20.1 20.1 20.1 20.0 20.0 20.1 20.1 20.1 20.1 20.1 20.1 20.1 20.1 20.1 20.1 20.1 20.1 20.1 20.1 20.1 20.1 20.1 20.2 20.2 20.2 20.2 20.2 20.2 20.2 20.0 20.0 20.1 20.1 20.1 20.1 20.1 20.1 20.1 20.2 20.2 20.2 20.2 20.2 20.2 20.2 20.2 20.2 20.2 20.2 20.3 20.3 20.3 20.3 20.3 20.3 20.0 20.0 20.1 20.2 20.2 20.2 20.2 20.2 20.2 20.2 20.2 20.2 20.2 20.2 20.2 20.2 20.3 20.3 20.3 20.3 20.4 20.4 20.4 20.4 20.4 20.4 20.0 20.0 20.1 20.2 20.2 20.2 20.3 20.3 20.3 20.3 20.3 20.3 20.3 20.3 20.3 20.3 20.3 20.3 20.4 20.4 20.4 20.5 20.5 20.5 20.6 20.6 20.0 20.0 20.1 20.1 20.2 20.3 20.3 20.4 20.4 20.4 20.4 20.4 20.4 20.4 20.5 20.5 20.5 20.5 20.5 20.5 20.5 20.6 20.6 20.6 20.7 20.8 20.0 20.0 20.1 20.1 20.2 20.3 20.3 20.4 20.4 20.5 20.5 20.5 20.5 20.5 20.6 20.6 20.6 20.6 20.7 20.7 20.7 20.7 20.7 20.8 20.8 20.9 20.0 20.0 20.1 20.1 20.2 20.3 20.4 20.4 20.5 20.5 20.5 20.6 20.6 20.6 20.7 20.7 20.7 20.8 20.8 20.8 20.8 20.8 20.9 20.9 21.0 21.1 20.0 20.1 20.1 20.1 20.2 20.3 20.4 20.4 20.5 20.5 20.6 20.6 20.7 20.7 20.7 20.8 20.8 20.9 21.0 21.0 21.0 21.0 21.1 21.1 21.1 21.2 20.0 20.0 20.1 20.1 20.2 20.3 20.4 20.4 20.5 20.6 20.6 20.7 20.7 20.8 20.8 20.9 20.9 21.0 21.1 21.1 21.2 21.2 21.2 21.3 21.3 21.3 20.0 20.0 20.1 20.1 20.2 20.3 20.4 20.4 20.5 20.6 20.7 20.7 20.8 20.8 20.9 21.0 21.0 21.1 21.2 21.2 21.3 21.4 21.4 21.4 21.5 21.6 20.0 20.0 20.1 20.1 20.2 20.3 20.4 20.4 20.5 20.6 20.7 20.8 20.8 20.9 21.0 21.0 21.1 21.2 21.3 21.4 21.5 21.5 21.6 21.7 21.8 21.9 20.0 20.0 20.1 20.1 20.2 20.3 20.4 20.4 20.5 20.6 20.7 20.8 20.9 20.9 21.0 21.1 21.2 21.3 21.4 21.5 21.6 21.7 21.8 22.0 22.1 22.3 20.0 20.0 20.1 20.2 20.2 20.3 20.4 20.5 20.5 20.6 20.7 20.8 20.9 21.0 21.1 21.2 21.3 21.4 21.5 21.6 21.8 21.9 22.0 22.2 22.4 22.6 20.0 20.0 20.1 20.2 20.2 20.3 20.4 20.5 20.6 20.7 20.8 