<?xml version="1.0"?>
<VTKFile type="PolyData" version="1.0" byte_order="LittleEndian" header_type="UInt64">
<PolyData>
<Piece NumberOfPoints="457" NumberOfVerts="0" NumberOfLines="0" NumberOfPolys="0">
    <Points>
        <DataArray type="Float32" NumberOfComponents="3" format="ascii">
        14.9952 9.5498 4.0955 14.7193 8.3180 4.1915 14.4464 8.1401 4.5742 14.3900 11.1320 5.7289 13.9376 7.9629 6.7312 14.6355 3.8564 7.4911 7.1106 8.5532 6.4110 13.7318 5.7513 4.2934 14.8659 6.0626 5.3237 12.8916 8.8292 4.5886 13.7980 9.1614 2.4605 13.9653 11.3735 2.6084 14.6709 4.0500 6.0359 13.6241 8.1684 2.6838 14.1468 12.2379 3.7793 13.6717 7.8879 2.8602 11.8975 7.3915 6.4288 11.1639 9.0927 6.3169 11.9694 9.2609 5.8098 13.4838 11.1031 3.6541 13.0414 7.4477 4.2224 13.0839 5.0724 5.6196 13.6955 4.6324 5.0482 12.2205 6.8377 5.9611 13.7377 8.4111 2.3929 14.3768 7.4265 2.2824 14.4373 6.5643 2.6021 13.7125 5.0776 4.1288 14.5796 9.5967 1.3158 13.9438 7.9936 2.6224 14.2814 5.6540 2.7012 14.7670 6.6545 1.1305 13.9154 5.7091 5.0610 14.2796 7.9965 2.2309 14.3210 5.5443 3.2875 13.7047 12.0040 5.7876 14.0681 6.8844 4.5635 14.0260 5.5280 5.6335 14.2781 6.7478 4.5338 14.4223 5.8733 4.9528 13.3214 12.4718 8.3940 13.3891 11.6920 8.3940 14.2774 2.8573 4.7885 14.7883 8.6108 3.0575 14.6884 6.5611 4.1181 14.8786 2.4725 5.5761 14.6225 7.8116 3.6762 14.4252 3.4301 4.3484 13.4911 11.6287 8.3940 13.5274 13.1738 8.3940 13.5200 12.5061 8.3940 14.5974 8.0100 3.7199 14.5671 5.5293 5.0636 13.5831 12.4481 8.3940 13.5192 0.8377 6.5408 14.5591 7.3747 4.1036 14.8383 7.2151 3.2184 12.0477 8.9481 1.7498 13.5078 12.3703 8.3940 14.0088 0.1698 6.8877 13.7604 12.6019 8.3940 13.9206 11.3445 8.3940 13.7396 11.9829 8.3940 13.6826 13.0390 8.3940 13.6802 12.2312 8.3940 13.7780 13.4253 8.3940 13.7813 11.5591 8.3940 13.8845 11.5401 8.3940 13.8212 13.2756 8.3940 13.8557 12.7576 8.3940 13.9301 12.7678 8.3940 13.9944 12.9571 8.3940 13.9311 12.3131 8.3940 14.0730 10.7866 8.3940 13.8184 12.5441 8.3940 14.0682 10.9830 8.3940 13.9808 14.0135 8.3940 13.9027 12.7028 8.3940 13.9667 11.6167 8.3940 13.8620 12.8352 8.3940 14.0102 13.6438 8.3940 13.8886 13.5745 8.3940 13.9659 13.2853 8.3940 14.0694 10.9750 8.3940 13.9360 12.1375 8.3940 13.8309 13.2870 8.3940 13.9824 12.1735 8.3940 14.0293 13.9560 8.3940 14.0200 13.6782 8.3940 13.9864 13.2600 8.3940 13.8965 12.6944 8.3940 14.9501 7.1877 5.7489 14.0325 13.2312 8.3940 14.5997 6.3600 5.6150 13.9195 13.1744 8.3940 13.9793 13.7334 8.3940 14.3858 5.9502 5.9860 13.9238 13.2815 8.3940 13.9502 11.8966 8.3940 13.9588 12.7537 8.3940 13.9253 5.5385 6.4269 14.0606 8.0109 5.7092 13.8246 6.1519 6.4670 13.5474 7.6820 6.4556 14.6111 6.2507 5.5016 14.6377 6.4395 5.1698 14.7795 6.7836 4.6192 14.9294 10.4570 4.1937 14.0789 13.0768 8.3940 14.2069 11.8476 8.3940 14.0335 12.0026 8.3940 14.4114 6.8147 5.5426 14.0868 13.0802 8.3940 14.2340 11.6097 8.3940 14.0302 13.0572 8.3940 14.0677 5.5001 6.1290 14.2809 10.2078 8.3940 14.4954 5.9491 5.7775 14.4245 7.4417 5.3609 14.2232 14.5711 8.3940 14.2555 14.7892 8.3940 14.1515 14.0943 8.3940 14.0651 11.6919 8.3940 14.0905 11.5682 8.3940 14.0317 12.2935 8.3940 14.1578 13.7727 8.3940 14.1365 13.7395 8.3940 14.1047 13.4572 8.3940 14.0123 6.9944 6.0958 14.2881 4.6411 7.1996 14.1239 13.6448 8.3940 14.2414 10.9126 8.3940 14.2090 4.6121 7.2164 14.6428 7.3519 5.1217 14.3170 8.0552 5.5598 14.1606 11.3969 8.3940 13.2432 7.6380 7.0124 14.1345 11.9608 8.3940 14.5557 8.3138 5.4121 14.8030 9.9349 3.1101 14.5341 7.7771 5.1980 13.6335 7.0663 6.6768 14.1253 12.9225 8.3940 14.3498 10.7065 8.3940 14.1783 13.3316 8.3940 14.1507 12.7349 8.3940 14.2134 11.5200 8.3940 14.1850 11.6823 8.3940 14.1473 12.2272 8.3940 14.3836 10.5276 8.3940 14.3759 14.4319 8.3940 13.1950 7.8051 6.7510 14.2040 13.2475 8.3940 14.4459 14.7603 8.3940 14.3973 14.4708 8.3940 14.3054 13.9551 8.3940 14.1946 12.4610 8.3940 13.3797 6.0789 7.3285 14.5430 7.0475 5.2576 13.5203 5.2690 7.4772 14.2049 11.9490 4.1832 14.9149 9.6118 3.7347 14.2084 7.7713 5.5459 14.8185 6.8765 4.5708 14.3219 13.6761 8.3940 14.2745 12.9103 8.3940 11.0313 4.7645 7.8052 14.2153 12.8740 8.3940 14.0915 13.3414 4.8148 14.0916 8.8627 4.6164 14.3270 13.8145 8.3940 13.3415 4.6304 7.5867 13.3286 5.8795 7.2841 14.3458 12.8415 8.3940 14.3210 13.3566 8.3940 14.3065 8.6606 5.3028 13.7184 12.8244 4.9187 13.0550 6.0551 7.4211 13.9018 12.7767 6.0440 14.2484 12.3507 8.3940 14.0629 11.9452 2.7954 14.2932 11.9439 8.3940 14.3050 11.3594 8.3940 14.2408 13.2555 8.3940 14.3678 8.9880 8.3940 13.7372 5.9851 6.9360 14.3725 13.3904 8.3940 14.2855 12.3899 8.3940 14.3835 10.9507 8.3940 14.3606 12.7480 8.3940 14.9847 12.8593 6.1673 14.3562 13.5982 8.3940 14.3804 13.3175 8.3940 14.4998 14.1208 8.3940 13.3530 6.9436 7.0206 14.4515 14.6232 8.3940 14.2970 11.5138 8.3940 14.3312 14.2077 8.3940 14.4078 10.6395 8.3940 14.2814 7.8826 5.3972 14.2766 11.3269 8.3940 14.3464 11.3132 8.3940 13.4183 7.4997 6.6222 14.0383 7.4156 5.7889 13.9423 7.2729 5.8789 14.2915 13.0162 8.3940 14.2790 12.0544 8.3940 14.2780 12.4718 8.3940 14.2907 12.9798 8.3940 12.3252 2.6858 7.7118 14.3723 13.8198 8.3940 14.0628 12.0872 3.1303 14.3673 11.5587 8.3940 13.9107 11.9240 3.7943 14.3929 13.6040 8.3940 14.4125 11.0701 8.3940 14.3583 11.8171 8.3940 14.3904 13.7843 8.3940 13.7908 12.1905 6.6048 14.3450 13.2483 8.3940 14.4831 14.1507 8.3940 14.7366 11.5300 4.8284 14.3931 13.5201 8.3940 14.5178 11.7873 2.9949 14.4964 10.5433 8.3940 14.3532 12.0425 8.3940 14.5102 14.3380 8.3940 14.3934 12.9438 8.3940 14.3941 11.8475 8.3940 11.1430 4.6646 7.8677 14.4353 11.6832 8.3940 14.4106 8.8748 4.8352 14.2005 7.2112 5.9907 14.0131 9.3132 3.4270 13.3403 8.0131 6.3548 10.9493 5.2185 7.7878 14.8933 9.7914 4.5029 14.8191 8.9503 5.3017 14.7874 9.8390 3.4474 12.3822 11.1651 6.1509 13.6772 12.8130 5.2732 14.7225 10.1364 3.5679 13.4038 8.7643 2.6477 14.5634 9.8292 8.3940 14.6865 6.5324 6.0384 13.9393 7.9083 6.8684 11.4394 11.1885 6.7557 13.7855 9.0617 6.3472 13.4334 14.4495 5.0568 14.5226 9.6753 4.4625 13.6148 12.0015 5.2141 14.9198 10.2393 4.0643 14.3892 10.2665 2.4405 6.9977 12.4958 7.9413 11.8383 10.6781 6.8277 11.6191 8.0597 7.6479 14.5715 9.6144 8.3940 12.7419 12.6523 3.9630 14.6402 8.4437 8.3940 8.5900 4.6917 7.9613 13.5249 7.7906 5.3159 10.4932 8.3523 6.8378 12.0198 12.0682 5.4561 14.6121 11.0381 3.8333 13.9968 8.3682 4.9547 11.3256 14.5482 5.8859 11.6418 10.7752 6.8672 14.6569 11.4445 4.0613 12.7283 11.1863 6.0081 14.5909 10.2312 8.3940 12.6125 12.3271 4.6548 14.6615 11.0615 8.3940 14.5923 11.1162 2.8158 11.7585 13.9293 6.0412 14.5210 9.9085 8.3940 14.7436 11.9487 4.9107 13.6395 11.5748 3.6965 12.1325 5.8203 7.1076 14.5621 9.8724 8.3940 9.0394 13.6816 7.5382 14.5423 9.6814 8.3940 14.2569 9.3264 4.3297 13.2951 8.5649 3.8632 14.0536 9.9289 2.6733 14.5780 8.9346 8.3940 8.4457 8.6061 7.4994 14.4357 10.3221 8.3940 13.3110 9.3567 3.4578 12.7841 14.7063 6.4601 14.3525 8.4974 5.2505 11.9914 6.5079 6.9565 14.5462 10.6996 8.3940 14.4076 12.6303 8.3940 13.8035 8.0387 5.0468 13.2811 7.5404 5.8095 13.8180 9.0062 3.0374 14.6431 8.9340 5.0462 14.3914 9.4378 4.4036 14.5876 12.9862 8.3940 9.7300 10.4975 7.2497 14.1433 8.4347 4.4535 14.0476 8.2852 4.5951 14.7380 10.5496 3.6721 14.5451 10.4626 2.4611 14.5200 11.0924 8.3940 14.7687 10.7867 3.4832 12.8673 7.3246 5.7412 14.6877 8.8562 3.9572 10.7870 13.4045 6.9215 8.6390 13.4854 7.5919 11.0667 3.9150 7.5969 9.0403 10.7290 7.8958 11.2318 11.2009 6.9042 13.1009 7.6997 5.0258 14.6033 14.6041 8.3940 12.7146 6.6979 6.7570 14.5795 11.7267 8.3940 14.6201 14.5840 8.3940 14.5707 9.4203 4.0929 13.0237 6.9726 6.0624 14.8770 7.0762 4.4776 14.8266 10.5072 3.7140 13.4914 8.0244 4.3969 11.5157 5.0888 7.4836 12.8060 11.8535 4.6930 14.5378 11.0289 8.3940 13.1339 7.5022 5.2049 10.8466 6.0588 7.4123 14.0815 11.4930 3.8815 11.3958 8.3341 7.1719 14.5787 14.1908 8.3940 14.6458 10.4895 8.3940 14.3537 8.7586 2.7081 14.4633 9.9476 8.3940 12.3704 14.0518 4.9465 14.5396 11.2162 8.3940 14.5385 13.6298 8.3940 14.5953 10.8929 8.3940 14.4930 13.3409 8.3940 14.8534 9.7883 3.7369 12.8633 7.5525 6.2118 12.1763 11.7410 5.3310 12.1888 13.4443 4.6524 14.6175 14.1750 8.3940 13.9352 11.5918 4.5271 12.7357 10.0810 5.6591 14.4950 13.2083 8.3940 14.6816 10.4656 8.3940 14.6760 10.5248 8.3940 14.5138 11.8207 8.3940 11.4306 12.8413 6.3947 12.7868 14.5181 6.2744 14.7348 10.5210 8.3940 14.6078 11.1528 8.3940 14.9871 10.3653 4.4683 14.6008 14.1107 8.3940 14.5348 13.2231 8.3940 14.5157 12.7120 8.3940 11.6336 10.8259 6.8302 11.5699 11.5866 6.1348 14.5974 11.5693 8.3940 14.3425 9.3563 5.3719 11.9156 14.8650 6.7304 14.6523 13.9572 8.3940 13.2091 10.4968 5.5999 14.6017 12.1344 3.7077 14.6701 10.6505 8.3940 13.0779 10.2898 5.7089 14.4430 12.2944 5.1550 14.1364 10.8280 5.1165 12.4902 10.0495 6.3703 12.8004 14.3831 5.9775 13.3793 14.0624 5.9199 14.7003 10.5483 8.3940 10.7616 11.7011 6.9940 14.6374 13.4326 8.3940 14.6056 10.0106 8.3940 14.6112 8.8986 8.3940 12.9535 9.4777 6.7558 11.8303 11.6359 6.9918 12.9395 11.2954 6.9403 12.9471 8.0331 7.7306 14.7713 9.4059 8.3940 13.9901 6.5059 6.4324 13.5144 1.7415 7.3473 14.6227 8.9340 8.3940 14.6367 8.6133 8.3940 13.0942 10.5067 7.0413 14.6303 9.5018 8.3940 14.7554 9.8617 8.3940 14.6186 9.4718 8.3940 12.8148 14.3800 6.3389 13.4445 9.0043 7.2960 14.7738 9.2698 8.3940 14.7328 10.4777 8.3940 14.7876 8.0621 8.3940 14.6534 7.8072 6.2096 14.7140 9.5481 6.7196 14.7685 9.1372 8.3940 14.6362 8.4957 8.3940 14.6141 10.2796 6.5039 14.6735 9.3574 8.3940 13.2090 11.2655 7.1222 14.7567 10.2299 8.3940 14.7343 10.8525 8.3940 14.7577 8.8444 8.3940 14.6970 9.5320 8.3940 14.7194 10.3503 8.3940 13.7241 7.0331 7.5149 14.7737 9.0034 8.3940 11.5870 8.8221 7.4576 9.9992 10.7789 7.7726 13.3128 8.5310 7.4990 14.6997 11.5523 8.3940 11.2784 11.2780 7.7451 14.7366 14.3233 8.3940 14.8961 9.9421 6.6036 14.7293 10.5788 8.3940 12.7365 9.8007 6.9020 13.0690 9.1804 6.9871 14.6405 6.0895 6.2035 12.8259 14.8285 6.9475 14.7995 14.1236 8.3940 14.6741 14.0362 8.3940 14.1446 8.5194 7.0201 14.8347 8.0301 8.3940 14.7167 14.1098 8.3940 14.6108 13.7510 3.8614 13.4161 7.6703 7.5485 13.3883 8.1290 7.4892 14.7129 13.6570 8.3940 12.8475 10.0381 7.3279 13.9231 4.3762 7.9588 14.7143 8.4579 8.3940 14.7032 8.8958 8.3940 14.7316 8.3611 8.3940 13.8740 12.3303 8.0773 14.8012 10.3927 8.3940 14.7431 8.2908 8.3940 14.7052 9.1546 8.3940 14.1431 9.9323 7.0003 14.7990 14.5647 8.3940 14.6264 12.0488 8.3940 14.8084 14.2000 8.3940 13.9289 12.5890 8.1085 14.8800 9.9394 6.0118 14.7709 13.5903 8.3940 13.9819 12.2272 3.3175 14.4009 10.5763 6.6943 14.7889 11.2211 8.3940 13.9047 12.3204 3.1078 14.3324 11.0270 4.0752 14.3393 13.0063 7.4989 14.9846 10.0230 6.4742 14.8419 14.2535 8.3940 14.7937 9.2445 8.3940 14.8603 9.2597 6.2959 
        </DataArray>
    </Points>
    <PointData>
        <DataArray type="Float32" Name="tag" format="ascii">
            29691.0000 79995.0000 83247.0000 84467.0000 81067.0000 81147.0000 89763.0000 92787.0000 136783.0000 160427.0000 171079.0000 159383.0000 147207.0000 174479.0000 158219.0000 165831.0000 163851.0000 151143.0000 158659.0000 160523.0000 166163.0000 162731.0000 154219.0000 171367.0000 171795.0000 162183.0000 160667.0000 170991.0000 177835.0000 177575.0000 156719.0000 156559.0000 184647.0000 176551.0000 157191.0000 76783.0000 227819.0000 208503.0000 216539.0000 208675.0000 63887.0000 58819.0000 224175.0000 224987.0000 227735.0000 221339.0000 234119.0000 221867.0000 73151.0000 76515.0000 92403.0000 235475.0000 223563.0000 87739.0000 213879.0000 234107.0000 222623.0000 143071.0000 66419.0000 261027.0000 96747.0000 84295.0000 98671.0000 98675.0000 92515.0000 100251.0000 97927.0000 94639.0000 105807.0000 109275.0000 124015.0000 130603.0000 104843.0000 94643.0000 117891.0000 98599.0000 84435.0000 123175.0000 96695.0000 98719.0000 80843.0000 109151.0000 117415.0000 95339.0000 124887.0000 96635.0000 130819.0000 99323.0000 102995.0000 121203.0000 98767.0000 241723.0000 124807.0000 363311.0000 112811.0000 80051.0000 359831.0000 95947.0000 121187.0000 112571.0000 369999.0000 397543.0000 388547.0000 394055.0000 384919.0000 381255.0000 381151.0000 341599.0000 138547.0000 147219.0000 136007.0000 372359.0000 109855.0000 141763.0000 103175.0000 372019.0000 65579.0000 368863.0000 349423.0000 86071.0000 59667.0000 104059.0000 125051.0000 124743.0000 140103.0000 95427.0000 122635.0000 130495.0000 382559.0000 387071.0000 112767.0000 73947.0000 383191.0000 385051.0000 396151.0000 103959.0000 390951.0000 143759.0000 390563.0000 392303.0000 385087.0000 393011.0000 119659.0000 100427.0000 111503.0000 134067.0000 139367.0000 144255.0000 118179.0000 96755.0000 104915.0000 402635.0000 112759.0000 68047.0000 86931.0000 96055.0000 129687.0000 397899.0000 388751.0000 401079.0000 417923.0000 396007.0000 404531.0000 383087.0000 142535.0000 151983.0000 464419.0000 149983.0000 388615.0000 459367.0000 134055.0000 406259.0000 413071.0000 155663.0000 140123.0000 456119.0000 413103.0000 409499.0000 408051.0000 148271.0000 394355.0000 151963.0000 114991.0000 120183.0000 175551.0000 418071.0000 143511.0000 137903.0000 93151.0000 147015.0000 260083.0000 116419.0000 157411.0000 109911.0000 396427.0000 90287.0000 127395.0000 90899.0000 104763.0000 397415.0000 120599.0000 136479.0000 404987.0000 396271.0000 405951.0000 133555.0000 139647.0000 140515.0000 129891.0000 409451.0000 134283.0000 399615.0000 149959.0000 418547.0000 122731.0000 118719.0000 127175.0000 124199.0000 406599.0000 140323.0000 110691.0000 416655.0000 121127.0000 428763.0000 104047.0000 140571.0000 86863.0000 158663.0000 147059.0000 461515.0000 149283.0000 456651.0000 404863.0000 459847.0000 458143.0000 462875.0000 473999.0000 456147.0000 441395.0000 480591.0000 467615.0000 445243.0000 445115.0000 212443.0000 411351.0000 454487.0000 489635.0000 486171.0000 475723.0000 456211.0000 472455.0000 445227.0000 446911.0000 486047.0000 493335.0000 491647.0000 178799.0000 467751.0000 176779.0000 472435.0000 462803.0000 462807.0000 474231.0000 462707.0000 461047.0000 466147.0000 487935.0000 475783.0000 487951.0000 175399.0000 467783.0000 150867.0000 212959.0000 466163.0000 200639.0000 477523.0000 461191.0000 470991.0000 177063.0000 471051.0000 201871.0000 456923.0000 460115.0000 456863.0000 170299.0000 466379.0000 172119.0000 438007.0000 488151.0000 463319.0000 464839.0000 93959.0000 152631.0000 464651.0000 466311.0000 454795.0000 450939.0000 460147.0000 158603.0000 468187.0000 464943.0000 464803.0000 445571.0000 447479.0000 145315.0000 426919.0000 467739.0000 459739.0000 468283.0000 475931.0000 468003.0000 491815.0000 489983.0000 462611.0000 63855.0000 468011.0000 152667.0000 89423.0000 461615.0000 469675.0000 386819.0000 449547.0000 463291.0000 469703.0000 471219.0000 132211.0000 469619.0000 471227.0000 466667.0000 472971.0000 138895.0000 90331.0000 464663.0000 185335.0000 468263.0000 152223.0000 136935.0000 104943.0000 146211.0000 451527.0000 471463.0000 474667.0000 469815.0000 118115.0000 464775.0000 472931.0000 156531.0000 98615.0000 99611.0000 151079.0000 484591.0000 492115.0000 112751.0000 118079.0000 439999.0000 137727.0000 146419.0000 156699.0000 486695.0000 486387.0000 152595.0000 477915.0000 481103.0000 138007.0000 477959.0000 241731.0000 136431.0000 477903.0000 476203.0000 482971.0000 490535.0000 490411.0000 476223.0000 117967.0000 494015.0000 152003.0000 206479.0000 225831.0000 493219.0000 489719.0000 491531.0000 499907.0000 265939.0000 460427.0000 505235.0000 217195.0000 191475.0000 498711.0000 242271.0000 245175.0000 204775.0000 489783.0000 494975.0000 245259.0000 196243.0000 163103.0000 451055.0000 491699.0000 233475.0000 168619.0000 496863.0000 180279.0000 491615.0000 165171.0000 125655.0000 224419.0000 207735.0000 177091.0000 498739.0000 218479.0000 493475.0000 497039.0000 498795.0000 158527.0000 500151.0000 114039.0000 496831.0000 164759.0000 499207.0000 495675.0000 421971.0000 495443.0000 128795.0000 147383.0000 490551.0000 168611.0000 123159.0000 432443.0000 497343.0000 503003.0000 153963.0000 501563.0000 423767.0000 165207.0000 172219.0000 199087.0000 318695.0000 123215.0000 178635.0000 180447.0000 493679.0000 119419.0000 458351.0000 124179.0000 325871.0000 490243.0000 153735.0000 432611.0000 507235.0000 152863.0000 440143.0000 302411.0000 416703.0000 505995.0000 146107.0000 210983.0000 501387.0000 
         </DataArray>
    </PointData>
</Piece>
</PolyData>
</VTKFile>