<?xml version="1.0"?>
<VTKFile type="RectilinearGrid" version="1.0" byte_order="LittleEndian" header_type="UInt64">
<RectilinearGrid WholeExtent="25 50 0 25 0 15">
<Piece Extent="25 50 0 25 0 15">
<Coordinates>
<DataArray type="Float64" Name="Array X-Axis" format="ascii" RangeMin="15.0" RangeMax="30.0">
15.0 15.6 16.2 16.8 17.4 18.0 18.6 19.2 19.8 20.4 21.0 21.6 22.2 22.8 23.4 24.0 24.6 25.2 25.8 26.4 27.0 27.6 28.2 28.8 29.4 30.0 
</DataArray>
<DataArray type="Float64" Name="Array Y-Axis" format="ascii" RangeMin="0.0" RangeMax="15.0">
0.0 0.6 1.2 1.8 2.4 3.0 3.6 4.2 4.8 5.4 6.0 6.6 7.2 7.8 8.4 9.0 9.6 10.2 10.8 11.4 12.0 12.6 13.2 13.8 14.4 15.0 
</DataArray>
<DataArray type="Float64" Name="Array Z-Axis" format="ascii" RangeMin="0.0" RangeMax="9.0">
0.0 0.6 1.2 1.8 2.4 3.0 3.6 4.2 4.8 5.4 6.0 6.6 7.2 7.8 8.4 9.0 
</DataArray>
</Coordinates>
<PointData>
<DataArray Name="TEMPERATURE" NumberOfComponents="1" type="Float64" format="ascii">
20.0 20.0 20.0 20.0 20.0 20.0 20.0 20.0 20.1 20.0 20.0 20.0 20.0 20.0 20.0 20.0 20.0 20.0 20.0 20.0 20.0 20.0 20.0 20.0 20.0 20.0 20.0 20.0 20.0 20.0 20.0 20.0 20.0 20.1 20.1 20.1 20.0 20.0 20.0 20.0 20.0 20.0 20.0 20.0 20.0 20.0 20.0 20.0 20.0 20.0 20.0 20.0 20.0 20.0 20.0 20.0 20.0 20.0 20.1 20.1 20.1 20.1 20.1 20.0 20.0 20.0 20.0 20.0 20.0 20.0 20.0 20.0 20.0 20.0 20.0 20.0 20.0 20.0 20.0 20.0 20.0 20.1 20.1 20.1 20.1 20.1 20.1 20.1 20.1 20.0 20.0 20.0 20.0 20.0 20.0 20.0 20.0 20.0 20.0 20.0 20.0 20.0 20.0 20.0 20.0 20.1 20.1 20.1 20.1 20.1 20.1 20.1 20.1 20.1 20.1 20.1 20.0 20.0 20.0 20.0 20.0 20.0 20.0 20.0 20.0 20.0 20.0 20.0 20.0 20.0 20.0 20.1 20.1 20.1 20.1 20.1 20.1 20.1 20.1 20.1 20.1 20.1 20.1 20.1 20.0 20.0 20.0 20.0 20.0 20.0 20.0 20.0 20.0 20.0 20.0 20.0 20.0 20.1 20.1 20.1 20.1 20.1 20.1 20.1 20.1 20.1 20.1 20.1 20.1 20.1 20.1 20.0 20.0 20.0 20.0 20.0 20.0 20.0 20.0 20.0 20.0 20.0 20.1 20.1 20.1 20.1 20.1 20.1 20.2 20.2 20.2 20.1 20.1 20.1 20.1 20.1 20.1 20.1 20.1 20.0 20.0 20.0 20.0 20.0 20.0 20.0 20.0 20.0 20.1 20.1 20.1 20.1 20.1 20.2 20.2 20.2 20.2 20.2 20.1 20.1 20.1 20.1 20.1 20.1 20.1 20.1 20.0 20.0 20.0 20.0 20.0 20.0 20.0 20.0 20.1 20.1 20.1 20.2 20.2 20.2 20.2 20.2 20.2 20.2 20.2 20.1 20.1 20.1 20.1 20.1 20.1 20.1 20.1 20.0 20.0 20.0 20.0 20.0 20.0 20.0 20.1 20.1 20.2 20.2 20.2 20.3 20.3 20.3 20.3 20.2 20.2 20.1 20.1 20.1 20.1 20.1 20.1 20.1 20.1 20.1 20.0 20.0 20.0 20.0 20.0 20.0 20.1 20.2 20.2 20.2 20.3 20.3 20.4 20.4 20.3 20.3 20.2 20.2 20.2 20.1 20.1 20.1 20.1 20.1 20.1 20.1 20.1 20.0 20.0 20.0 20.0 20.0 20.1 20.2 20.2 20.3 20.3 20.4 20.5 20.4 20.4 20.3 20.2 20.2 20.2 20.2 20.1 20.1 20.1 20.1 20.1 20.1 20.1 20.1 20.0 20.0 20.0 20.0 20.1 20.2 20.3 20.3 20.4 20.5 20.6 20.6 20.4 20.4 20.3 20.2 20.2 20.2 20.2 20.1 20.1 20.1 20.1 20.1 20.1 20.1 20.1 20.0 20.0 20.0 20.2 20.3 20.4 20.4 20.5 20.7 20.8 20.7 20.5 20.4 20.3 20.3 20.3 20.2 20.2 20.2 20.1 20.1 20.1 20.1 20.1 20.1 20.1 20.0 20.0 20.0 20.2 20.4 20.4 20.5 20.7 20.9 21.0 20.9 20.7 20.5 20.4 20.4 20.3 20.3 20.2 20.2 20.2 20.1 20.1 20.1 20.1 20.1 20.1 20.1 20.0 20.0 20.2 20.4 20.5 20.7 20.9 21.2 21.3 21.1 20.8 20.6 20.5 20.4 20.4 20.3 20.3 20.2 20.2 20.2 20.1 20.1 20.1 20.1 20.1 20.1 20.0 20.0 20.3 20.5 20.7 20.8 21.1 21.5 21.6 21.3 21.0 20.8 20.6 20.5 20.4 20.4 20.3 20.2 20.2 20.2 20.1 20.1 20.1 20.1 20.1 20.1 20.1 20.1 20.3 20.6 20.8 21.0 21.6 22.2 22.3 21.7 21.2 20.9 20.8 20.6 20.5 20.4 20.3 20.3 20.2 20.2 20.2 20.1 20.1 20.1 20.1 20.1 20.1 20.1 20.4 20.8 21.1 21.5 22.8 24.8 24.6 22.6 21.6 21.2 21.0 20.8 20.6 20.5 20.4 20.3 20.3 20.2 20.2 20.2 20.1 20.1 20.1 20.1 20.1 20.1 20.6 21.1 21.5 22.6 24.0 26.8 26.4 23.8 22.7 21.7 21.4 21.1 20.9 20.7 20.5 20.4 20.3 20.3 20.2 20.2 20.1 20.1 20.1 20.1 20.1 20.1 20.7 21.3 22.0 24.0 25.5 20.0 20.0 25.9 24.4 22.4 21.8 21.4 21.1 20.8 20.6 20.5 20.4 20.3 20.3 20.2 20.2 20.1 20.1 20.1 20.1 20.1 20.7 21.3 21.9 23.8 25.3 20.0 20.0 25.8 24.4 22.5 21.8 21.4 21.1 20.9 20.7 20.5 20.4 20.3 20.3 20.2 20.2 20.1 20.1 20.1 20.1 20.1 20.5 21.0 21.4 22.3 23.2 24.9 24.8 23.3 22.6 21.8 21.4 21.2 20.9 20.7 20.6 20.5 20.4 20.3 20.3 20.2 20.2 20.2 20.1 20.1 20.1 20.1 20.4 20.7 21.0 21.2 21.9 23.3 23.2 21.9 21.3 21.1 20.9 20.8 20.7 20.6 20.5 20.4 20.3 20.3 20.2 20.2 20.2 20.1 20.1 20.1 20.1 20.1 20.2 20.4 20.5 20.6 20.8 21.1 21.1 20.7 20.6 20.5 20.5 20.4 20.3 20.3 20.3 20.2 20.2 20.2 20.1 20.1 20.1 20.1 20.1 20.1 20.1 20.1 20.0 20.0 20.0 20.0 20.0 20.0 20.0 20.0 20.0 20.0 20.0 20.0 20.0 20.0 20.0 20.0 20.0 20.0 20.0 20.0 20.0 20.0 20.0 20.0 20.0 20.0 20.0 20.0 20.0 20.0 20.0 20.0 20.0 20.0 20.0 20.0 20.0 20.0 20.0 20.0 20.0 20.0 20.0 20.0 20.0 20.0 20.0 20.0 20.0 20.0 20.0 20.0 20.0 20.0 20.0 20.0 20.0 20.0 20.0 20.1 20.1 20.1 20.0 20.0 20.0 20.0 20.0 20.0 20.0 20.0 20.0 20.0 20.0 20.0 20.0 20.0 20.0 20.0 20.0 20.0 20.0 20.0 20.1 20.1 20.1 20.1 20.1 20.1 20.1 20.0 20.0 20.0 20.0 20.0 20.0 20.0 20.0 20.0 20.0 20.0 20.0 20.0 20.0 20.0 20.0 20.0 20.1 20.1 20.1 20.1 20.1 20.1 20.1 20.1 20.1 20.1 20.0 20.0 20.0 20.0 20.0 20.0 20.0 20.0 20.0 20.0 20.0 20.0 20.0 20.0 20.0 20.1 20.1 20.1 20.1 20.1 20.1 20.1 20.1 20.1 20.1 20.1 20.1 20.0 20.0 20.0 20.0 20.0 20.0 20.0 20.0 20.0 20.0 20.0 20.0 20.0 20.0 20.1 20.1 20.1 20.1 20.1 20.1 20.1 20.1 20.1 20.1 20.1 20.1 20.1 20.0 20.0 20.0 20.0 20.0 20.0 20.0 20.0 20.0 20.0 20.0 20.0 20.0 20.1 20.1 20.1 20.1 20.1 20.2 20.2 20.2 20.1 20.1 20.1 20.1 20.1 20.1 20.1 20.0 20.0 20.0 20.0 20.0 20.0 20.0 20.0 20.0 20.0 20.1 20.1 20.1 20.1 20.1 20.2 20.2 20.2 20.2 20.2 20.1 20.1 20.1 20.1 20.1 20.1 20.1 20.0 20.0 20.0 20.0 20.0 20.0 20.0 20.0 20.0 20.1 20.1 20.1 20.2 20.2 20.2 20.3 20.3 20.2 20.2 20.1 20.1 20.1 20.1 20.1 20.1 20.1 20.1 20.0 20.0 20.0 20.0 20.0 20.0 20.0 20.0 20.1 20.1 20.2 20.2 20.2 20.3 20.3 20.3 20.3 20.2 20.2 20.1 20.1 20.1 20.1 20.1 20.1 20.1 20.1 20.0 20.0 20.0 20.0 20.0 20.0 20.0 20.1 20.2 20.2 20.2 20.3 20.4 20.4 20.4 20.3 20.3 20.2 20.2 20.2 20.1 20.1 20.1 20.1 20.1 20.1 20.1 20.0 20.0 20.0 20.0 20.0 20.0 20.1 20.2 20.3 20.3 20.4 20.5 20.5 20.5 20.4 20.3 20.3 20.2 20.2 20.2 20.1 20.1 20.1 20.1 20.1 20.1 20.1 20.0 20.0 20.0 20.0 20.0 20.2 20.3 20.3 20.4 20.5 20.6 20.7 20.7 20.5 20.4 20.3 20.3 20.2 20.2 20.2 20.1 20.1 20.1 20.1 20.1 20.1 20.1 20.0 20.0 20.0 20.0 20.2 20.3 20.4 20.5 20.6 20.8 21.0 20.8 20.6 20.5 20.4 20.3 20.3 20.2 20.2 20.2 20.1 20.1 20.1 20.1 20.1 20.1 20.0 20.0 20.0 20.0 20.2 20.4 20.5 20.6 20.9 21.1 21.3 21.1 20.8 20.6 20.5 20.4 20.3 20.3 20.2 20.2 20.2 20.1 20.1 20.1 20.1 20.1 20.1 20.0 20.0 20.0 20.3 20.5 20.6 20.8 21.2 21.6 21.8 21.4 21.0 20.8 20.6 20.5 20.4 20.3 20.3 20.2 20.2 20.2 20.1 20.1 20.1 20.1 20.1 20.1 20.0 20.0 20.3 20.6 20.8 21.1 22.4 23.7 23.0 21.9 21.3 20.9 20.7 20.6 20.5 20.4 20.3 20.3 20.2 20.2 20.1 20.1 20.1 20.1 20.1 20.1 20.0 20.0 20.4 20.8 21.1 21.7 25.6 28.6 26.2 23.1 21.7 21.2 20.9 20.7 20.6 20.5 20.4 20.3 20.2 20.2 20.2 20.1 20.1 20.1 20.1 20.1 20.1 20.1 20.6 21.1 21.5 23.5 29.7 34.5 31.2 25.7 22.8 21.6 21.2 21.0 20.8 20.6 20.5 20.4 20.3 20.2 20.2 20.2 20.1 20.1 20.1 20.1 20.1 20.1 20.8 21.5 22.6 26.6 46.5 94.7 89.1 40.3 25.5 22.7 21.8 21.4 21.0 20.8 20.6 20.5 20.4 20.3 20.2 20.2 20.1 20.1 20.1 20.1 20.1 20.1 21.0 21.9 23.9 29.2 72.6 271.8 274.3 73.7 28.9 24.2 22.4 21.8 21.4 21.0 20.8 20.6 20.4 20.3 20.3 20.2 20.2 20.1 20.1 20.1 20.1 20.1 20.9 21.8 23.8 28.8 66.9 267.3 281.2 76.0 28.7 24.2 22.5 21.9 21.4 21.1 20.8 20.6 20.5 20.4 20.3 20.2 20.2 20.1 20.1 20.1 20.1 20.1 20.7 21.4 22.4 25.5 38.7 87.1 91.3 41.7 25.1 22.7 21.9 21.5 21.2 20.9 20.7 20.6 20.4 20.3 20.3 20.2 20.2 20.1 20.1 20.1 20.1 20.1 20.5 21.0 21.3 22.3 24.3 27.0 26.9 24.2 22.2 21.5 21.2 21.0 20.8 20.7 20.5 20.4 20.4 20.3 20.2 20.2 20.2 20.1 20.1 20.1 20.1 20.1 20.3 20.5 20.7 20.9 21.5 22.4 22.3 21.4 20.8 20.7 20.6 20.5 20.4 20.3 20.3 20.2 20.2 20.2 20.1 20.1 20.1 20.1 20.1 20.1 20.0 20.0 20.0 20.0 20.0 20.0 20.0 20.0 20.0 20.0 20.0 20.0 20.0 20.0 20.0 20.0 20.0 20.0 20.0 20.0 20.0 20.0 20.0 20.0 20.0 20.0 20.0 20.0 20.0 20.0 20.0 20.0 20.0 20.0 20.0 20.0 20.0 20.0 20.0 20.0 20.0 20.0 20.0 20.0 20.0 20.0 20.0 20.0 20.0 20.0 20.0 20.0 20.0 20.0 20.0 20.0 20.0 20.0 20.0 20.0 20.0 20.0 20.1 20.0 20.0 20.0 20.0 20.0 20.0 20.0 20.0 20.0 20.0 20.0 20.0 20.0 20.0 20.0 20.0 20.0 20.0 20.0 20.0 20.0 20.0 20.0 20.1 20.1 20.1 20.1 20.0 20.0 20.0 20.0 20.0 20.0 20.0 20.0 20.0 20.0 20.0 20.0 20.0 20.0 20.0 20.0 20.0 20.0 20.0 20.0 20.1 20.1 20.1 20.1 20.1 20.1 20.1 20.0 20.0 20.0 20.0 20.0 20.0 20.0 20.0 20.0 20.0 20.0 20.0 20.0 20.0 20.0 20.0 20.0 20.1 20.1 20.1 20.1 20.1 20.1 20.1 20.1 20.1 20.1 20.0 20.0 20.0 20.0 20.0 20.0 20.0 20.0 20.0 20.0 20.0 20.0 20.0 20.0 20.0 20.1 20.1 20.1 20.1 20.1 20.1 20.1 20.1 20.1 20.1 20.1 20.1 20.0 20.0 20.0 20.0 20.0 20.0 20.0 20.0 20.0 20.0 20.0 20.0 20.0 20.0 20.1 20.1 20.1 20.1 20.1 20.2 20.2 20.2 20.1 20.1 20.1 20.1 20.1 20.1 20.0 20.0 20.0 20.0 20.0 20.0 20.0 20.0 20.0 20.0 20.0 20.1 20.1 20.1 20.1 20.1 20.2 20.2 20.2 20.2 20.2 20.1 20.1 20.1 20.1 20.1 20.1 20.0 20.0 20.0 20.0 20.0 20.0 20.0 20.0 20.0 20.0 20.1 20.1 20.1 20.2 20.2 20.2 20.3 20.3 20.2 20.2 20.1 20.1 20.1 20.1 20.1 20.1 20.1 20.0 20.0 20.0 20.0 20.0 20.0 20.0 20.0 20.0 20.1 20.1 20.2 20.2 20.2 20.3 20.4 20.3 20.3 20.2 20.2 20.1 20.1 20.1 20.1 20.1 20.1 20.1 20.0 20.0 20.0 20.0 20.0 20.0 20.0 20.0 20.1 20.2 20.2 20.2 20.3 20.4 20.5 20.4 20.4 20.3 20.2 20.2 20.2 20.1 20.1 20.1 20.1 20.1 20.1 20.0 20.0 20.0 20.0 20.0 20.0 20.0 20.1 20.2 20.3 20.3 20.4 20.5 20.6 20.6 20.5 20.3 20.3 20.2 20.2 20.2 20.1 20.1 20.1 20.1 20.1 20.1 20.0 20.0 20.0 20.0 20.0 20.0 20.2 20.3 20.3 20.4 20.6 20.7 20.8 20.7 20.6 20.4 20.3 20.3 20.2 20.2 20.2 20.1 20.1 20.1 20.1 20.1 20.1 20.0 20.0 20.0 20.0 20.0 20.2 20.4 20.4 20.6 20.7 21.0 21.1 21.0 20.7 20.5 20.4 20.3 20.3 20.2 20.2 20.2 20.1 20.1 20.1 20.1 20.1 20.1 20.0 20.0 20.0 20.0 20.2 20.4 20.6 20.7 21.0 21.4 21.5 21.3 20.9 20.7 20.5 20.4 20.4 20.3 20.2 20.2 20.2 20.1 20.1 20.1 20.1 20.1 20.0 20.0 20.0 20.0 20.3 20.6 20.7 21.0 21.5 22.5 22.6 21.8 21.2 20.9 20.7 20.6 20.4 20.4 20.3 20.2 20.2 20.2 20.1 20.1 20.1 20.1 20.1 20.0 20.0 20.0 20.4 20.7 21.0 22.3 28.4 32.0 27.5 23.0 21.6 21.1 20.9 20.7 20.6 20.4 20.3 20.3 20.2 20.2 20.1 20.1 20.1 20.1 20.1 20.0 20.0 20.0 20.5 20.9 21.7 30.1 54.7 65.2 49.4 32.5 23.6 21.6 21.1 20.9 20.7 20.5 20.4 20.3 20.3 20.2 20.2 20.1 20.1 20.1 20.1 20.1 20.0 20.0 20.7 21.3 23.6 48.0 93.5 106.3 79.7 48.4 28.8 23.0 21.6 21.2 20.9 20.7 20.5 20.4 20.3 20.2 20.2 20.2 20.1 20.1 20.1 20.1 20.1 20.0 21.0 22.1 27.7 74.6 152.4 206.3 182.7 103.0 46.8 25.7 22.5 21.7 21.2 20.9 20.7 20.5 20.4 20.3 20.2 20.2 20.1 20.1 20.1 20.1 20.1 20.0 21.2 22.9 32.5 86.3 192.0 340.1 354.7 195.6 71.5 28.8 23.4 22.2 21.6 21.2 20.9 20.6 20.5 20.4 20.3 20.2 20.2 20.1 20.1 20.1 20.1 20.0 21.2 22.8 31.7 77.7 178.5 337.9 360.6 195.4 68.3 28.5 23.4 22.2 21.6 21.2 20.9 20.7 20.5 20.4 20.3 20.2 20.2 20.1 20.1 20.1 20.1 20.1 20.9 22.0 26.6 52.0 111.5 177.3 168.8 94.1 41.3 25.1 22.5 21.8 21.3 21.0 20.8 20.6 20.5 20.4 20.3 20.2 20.2 20.1 20.1 20.1 20.1 20.1 20.6 21.3 22.9 27.8 43.0 49.2 40.1 31.9 25.2 22.5 21.6 21.2 21.0 20.8 20.6 20.5 20.4 20.3 20.2 20.2 20.2 20.1 20.1 20.1 20.1 20.1 20.3 20.7 21.0 22.5 24.9 25.7 24.9 23.2 21.6 20.9 20.8 20.6 20.5 20.4 20.3 20.3 20.2 20.2 20.1 20.1 20.1 20.1 20.1 20.1 20.0 20.0 20.0 20.0 20.0 20.0 20.0 20.0 20.0 20.0 20.0 20.0 20.0 20.0 20.0 20.0 20.0 20.0 20.0 20.0 20.0 20.0 20.0 20.0 20.0 20.0 20.0 20.0 20.0 20.0 20.0 20.0 20.0 20.0 20.0 20.0 20.1 20.0 20.0 20.0 20.0 20.0 20.0 20.0 20.0 20.0 20.0 20.0 20.0 20.0 20.0 20.0 20.0 20.0 20.0 20.0 20.0 20.0 20.0 20.0 20.0 20.1 20.1 20.1 20.0 20.0 20.0 20.0 20.0 20.0 20.0 20.0 20.0 20.0 20.0 20.0 20.0 20.0 20.0 20.0 20.0 20.0 20.0 20.0 20.0 20.1 20.1 20.1 20.1 20.1 20.1 20.0 20.0 20.0 20.0 20.0 20.0 20.0 20.0 20.0 20.0 20.0 20.0 20.0 20.0 20.0 20.0 20.0 20.0 20.1 20.1 20.1 20.1 20.1 20.1 20.1 20.1 20.0 20.0 20.0 20.0 20.0 20.0 20.0 20.0 20.0 20.0 20.0 20.0 20.0 20.0 20.0 20.0 20.0 20.1 20.1 20.1 20.1 20.1 20.1 20.1 20.1 20.1 20.1 20.0 20.0 20.0 20.0 20.0 20.0 20.0 20.0 20.0 20.0 20.0 20.0 20.0 20.0 20.0 20.1 20.1 20.1 20.1 20.1 20.1 20.1 20.1 20.1 20.1 20.1 20.1 20.0 20.0 20.0 20.0 20.0 20.0 20.0 20.0 20.0 20.0 20.0 20.0 20.0 20.0 20.1 20.1 20.1 20.1 20.1 20.2 20.2 20.2 20.1 20.1 20.1 20.1 20.1 20.1 20.0 20.0 20.0 20.0 20.0 20.0 20.0 20.0 20.0 20.0 20.0 20.1 20.1 20.1 20.1 20.1 20.2 20.2 20.2 20.2 20.2 20.1 20.1 20.1 20.1 20.1 20.1 20.0 20.0 20.0 20.0 20.0 20.0 20.0 20.0 20.0 20.0 20.1 20.1 20.1 20.1 20.2 20.2 20.3 20.3 20.2 20.2 20.1 20.1 20.1 20.1 20.1 20.1 20.1 20.0 20.0 20.0 20.0 20.0 20.0 20.0 20.0 20.0 20.1 20.1 20.2 20.2 20.2 20.3 20.3 20.3 20.3 20.2 20.2 20.1 20.1 20.1 20.1 20.1 20.1 20.1 20.1 20.0 20.0 20.0 20.0 20.0 20.0 20.0 20.1 20.2 20.2 20.2 20.3 20.4 20.4 20.4 20.3 20.3 20.2 20.2 20.1 20.1 20.1 20.1 20.1 20.1 20.1 20.1 20.0 20.0 20.0 20.0 20.0 20.0 20.1 20.2 20.2 20.3 20.4 20.5 20.5 20.5 20.4 20.3 20.3 20.2 20.2 20.2 20.1 20.1 20.1 20.1 20.1 20.1 20.1 20.0 20.0 20.0 20.0 20.0 20.1 20.2 20.3 20.4 20.5 20.6 20.7 20.7 20.5 20.4 20.3 20.3 20.2 20.2 20.2 20.1 20.1 20.1 20.1 20.1 20.1 20.0 20.0 20.0 20.0 20.0 20.2 20.3 20.4 20.5 20.7 20.8 20.9 20.9 20.7 20.5 20.4 20.3 20.3 20.2 20.2 20.2 20.1 20.1 20.1 20.1 20.1 20.1 20.0 20.0 20.0 20.0 20.2 20.4 20.5 20.6 20.8 21.0 21.2 21.1 20.8 20.6 20.5 20.4 20.3 20.3 20.2 20.2 20.2 20.1 20.1 20.1 20.1 20.1 20.0 20.0 20.0 20.0 20.3 20.5 20.6 21.0 21.7 22.4 22.7 21.9 21.1 20.8 20.7 20.5 20.4 20.4 20.3 20.2 20.2 20.2 20.1 20.1 20.1 20.1 20.1 20.0 20.0 20.0 20.3 20.6 21.3 29.5 38.8 36.5 30.0 24.9 21.8 21.1 20.8 20.7 20.5 20.4 20.3 20.3 20.2 20.2 20.1 20.1 20.1 20.1 20.1 20.1 20.0 20.0 20.4 21.0 28.5 64.6 100.0 92.2 69.9 47.6 27.9 22.0 21.1 20.8 20.7 20.5 20.4 20.3 20.3 20.2 20.2 20.1 20.1 20.1 20.1 20.1 20.0 20.0 20.6 22.3 46.7 121.0 180.6 173.7 145.4 95.8 45.2 26.6 21.7 21.1 20.8 20.6 20.5 20.4 20.3 20.2 20.2 20.2 20.1 20.1 20.1 20.1 20.1 20.0 20.9 26.1 68.8 181.5 271.2 302.4 300.2 212.9 93.4 33.9 23.4 21.6 21.2 20.9 20.6 20.5 20.4 20.3 20.2 20.2 20.1 20.1 20.1 20.1 20.1 20.0 21.2 30.8 85.7 213.7 324.4 419.0 470.5 358.2 155.9 39.8 25.2 22.0 21.4 21.1 20.8 20.6 20.5 20.3 20.3 20.2 20.2 20.1 20.1 20.1 20.1 20.1 21.2 29.9 83.2 203.3 312.3 406.3 451.0 334.0 140.8 38.5 25.0 22.0 21.5 21.1 20.8 20.6 20.5 20.4 20.3 20.2 20.2 20.1 20.1 20.1 20.1 20.1 20.9 26.1 60.8 139.1 221.0 251.2 230.3 156.3 69.1 31.3 23.1 21.6 21.2 20.9 20.7 20.6 20.5 20.4 20.3 20.2 20.2 20.2 20.1 20.1 20.1 20.1 20.7 23.5 38.8 69.0 102.4 96.4 65.6 46.9 32.3 24.9 21.6 21.2 20.9 20.7 20.6 20.5 20.4 20.3 20.3 20.2 20.2 20.1 20.1 20.1 20.1 20.1 20.3 21.1 25.4 37.3 44.9 41.0 34.2 28.2 23.5 21.2 20.8 20.6 20.5 20.4 20.3 20.3 20.2 20.2 20.1 20.1 20.1 20.1 20.1 20.1 20.1 20.0 20.0 20.0 20.0 20.0 20.0 20.0 20.0 20.1 20.1 20.1 20.0 20.0 20.0 20.0 20.0 20.0 20.0 20.0 20.0 20.0 20.0 20.0 20.0 20.0 20.0 20.0 20.0 20.0 20.0 20.0 20.0 20.0 20.0 20.1 20.1 20.1 20.1 20.0 20.0 20.0 20.0 20.0 20.0 20.0 20.0 20.0 20.0 20.0 20.0 20.0 20.0 20.0 20.0 20.0 20.0 20.0 20.0 20.0 20.1 20.1 20.1 20.1 20.1 20.0 20.0 20.0 20.0 20.0 20.0 20.0 20.0 20.0 20.0 20.0 20.0 20.0 20.0 20.0 20.0 20.0 20.0 20.0 20.0 20.1 20.1 20.1 20.1 20.1 20.1 20.1 20.0 20.0 20.0 20.0 20.0 20.0 20.0 20.0 20.0 20.0 20.0 20.0 20.0 20.0 20.0 20.0 20.1 20.1 20.1 20.1 20.1 20.1 20.1 20.1 20.1 20.1 20.0 20.0 20.0 20.0 20.0 20.0 20.0 20.0 20.0 20.0 20.0 20.0 20.0 20.0 20.0 20.1 20.1 20.1 20.1 20.1 20.1 20.1 20.1 20.1 20.1 20.1 20.1 20.0 20.0 20.0 20.0 20.0 20.0 20.0 20.0 20.0 20.0 20.0 20.0 20.0 20.0 20.1 20.1 20.1 20.1 20.1 20.1 20.1 20.1 20.1 20.1 20.1 20.1 20.1 20.0 20.0 20.0 20.0 20.0 20.0 20.0 20.0 20.0 20.0 20.0 20.0 20.0 20.1 20.1 20.1 20.1 20.1 20.2 20.2 20.2 20.1 20.1 20.1 20.1 20.1 20.1 20.1 20.0 20.0 20.0 20.0 20.0 20.0 20.0 20.0 20.0 20.0 20.1 20.1 20.1 20.1 20.1 20.2 20.2 20.2 20.2 20.2 20.1 20.1 20.1 20.1 20.1 20.1 20.1 20.0 20.0 20.0 20.0 20.0 20.0 20.0 20.0 20.0 20.1 20.1 20.1 20.1 20.2 20.2 20.2 20.2 20.2 20.2 20.1 20.1 20.1 20.1 20.1 20.1 20.1 20.1 20.0 20.0 20.0 20.0 20.0 20.0 20.0 20.0 20.1 20.1 20.1 20.2 20.2 20.2 20.3 20.3 20.3 20.2 20.2 20.1 20.1 20.1 20.1 20.1 20.1 20.1 20.1 20.1 20.0 20.0 20.0 20.0 20.0 20.0 20.1 20.1 20.2 20.2 20.3 20.3 20.3 20.4 20.3 20.3 20.2 20.2 20.1 20.1 20.1 20.1 20.1 20.1 20.1 20.1 20.1 20.0 20.0 20.0 20.0 20.0 20.1 20.2 20.2 20.2 20.3 20.4 20.4 20.4 20.4 20.3 20.2 20.2 20.2 20.2 20.1 20.1 20.1 20.1 20.1 20.1 20.1 20.1 20.0 20.0 20.0 20.0 20.1 20.2 20.2 20.3 20.4 20.4 20.5 20.5 20.4 20.4 20.3 20.2 20.2 20.2 20.2 20.1 20.1 20.1 20.1 20.1 20.1 20.1 20.0 20.0 20.0 20.0 20.1 20.2 20.3 20.4 20.5 20.5 20.6 20.7 20.5 20.4 20.3 20.3 20.3 20.2 20.2 20.2 20.1 20.1 20.1 20.1 20.1 20.1 20.1 20.0 20.0 20.0 20.2 20.3 20.3 20.4 20.5 20.6 20.8 20.8 20.7 20.5 20.4 20.4 20.3 20.3 20.2 20.2 20.2 20.1 20.1 20.1 20.1 20.1 20.1 20.0 20.0 20.0 20.2 20.3 20.4 20.9 21.3 21.5 21.9 21.6 20.9 20.6 20.5 20.4 20.4 20.3 20.3 20.2 20.2 20.2 20.1 20.1 20.1 20.1 20.1 20.1 20.0 20.0 20.2 20.5 24.2 38.1 39.5 28.4 26.6 24.5 21.6 20.8 20.7 20.5 20.5 20.4 20.3 20.3 20.2 20.2 20.1 20.1 20.1 20.1 20.1 20.1 20.0 20.0 20.3 23.3 49.2 103.1 98.6 60.4 57.5 47.2 30.3 22.3 20.9 20.7 20.6 20.4 20.4 20.3 20.2 20.2 20.2 20.1 20.1 20.1 20.1 20.1 20.1 20.1 20.7 34.5 101.4 193.7 168.4 125.4 146.2 114.9 63.2 32.7 21.9 20.9 20.7 20.6 20.4 20.4 20.3 20.2 20.2 20.2 20.1 20.1 20.1 20.1 20.1 20.1 21.9 51.2 153.9 272.4 234.6 241.4 329.6 260.4 131.5 50.6 25.5 21.3 20.9 20.7 20.6 20.4 20.3 20.3 20.2 20.2 20.1 20.1 20.1 20.1 20.1 20.1 23.3 64.5 186.2 319.2 277.7 336.2 485.8 405.0 206.1 62.6 29.7 21.7 21.2 20.9 20.7 20.5 20.4 20.3 20.3 20.2 20.2 20.1 20.1 20.1 20.1 20.1 22.9 62.2 183.5 316.2 273.8 312.1 441.1 365.0 187.1 60.8 29.2 21.7 21.2 20.9 20.7 20.5 20.4 20.3 20.3 20.2 20.2 20.2 20.1 20.1 20.1 20.1 22.1 52.3 148.3 254.8 252.8 232.6 243.0 185.0 101.2 46.7 24.8 21.4 21.0 20.8 20.6 20.5 20.4 20.3 20.3 20.2 20.2 20.2 20.1 20.1 20.1 20.1 21.4 38.4 96.3 165.0 188.2 148.9 97.3 71.0 49.2 30.1 21.7 21.0 20.8 20.6 20.5 20.4 20.4 20.3 20.2 20.2 20.2 20.2 20.1 20.1 20.1 20.1 20.3 23.7 44.9 78.1 85.3 65.5 47.4 36.4 26.9 21.5 20.7 20.5 20.4 20.4 20.3 20.2 20.2 20.2 20.1 20.1 20.1 20.1 20.1 20.1 20.1 20.1 20.0 20.0 20.0 20.0 20.0 20.0 20.0 20.1 20.1 20.1 20.1 20.0 20.0 20.0 20.0 20.0 20.0 20.0 20.0 20.0 20.0 20.0 20.0 20.0 20.0 20.0 20.0 20.0 20.0 20.0 20.0 20.0 20.0 20.1 20.1 20.1 20.1 20.0 20.0 20.0 20.0 20.0 20.0 20.0 20.0 20.0 20.0 20.0 20.0 20.0 20.0 20.0 20.0 20.0 20.0 20.0 20.0 20.0 20.1 20.1 20.1 20.1 20.1 20.1 20.0 20.0 20.0 20.0 20.0 20.0 20.0 20.0 20.0 20.0 20.0 20.0 20.0 20.0 20.0 20.0 20.0 20.0 20.1 20.1 20.1 20.1 20.1 20.1 20.1 20.1 20.0 20.0 20.0 20.0 20.0 20.0 20.0 20.0 20.0 20.0 20.0 20.0 20.0 20.0 20.0 20.0 20.1 20.1 20.1 20.1 20.1 20.1 20.1 20.1 20.1 20.1 20.1 20.0 20.0 20.0 20.0 20.0 20.0 20.0 20.0 20.0 20.0 20.0 20.0 20.0 20.0 20.1 20.1 20.1 20.1 20.1 20.1 20.1 20.1 20.1 20.1 20.1 20.1 20.1 20.0 20.0 20.0 20.0 20.0 20.0 20.0 20.0 20.0 20.0 20.0 20.0 20.0 20.1 20.1 20.1 20.1 20.1 20.1 20.1 20.1 20.1 20.1 20.1 20.1 20.1 20.1 20.0 20.0 20.0 20.0 20.0 20.0 20.0 20.0 20.0 20.0 20.0 20.0 20.1 20.1 20.1 20.1 20.1 20.1 20.1 20.1 20.1 20.1 20.1 20.1 20.1 20.1 20.1 20.1 20.0 20.0 20.0 20.0 20.0 20.0 20.0 20.0 20.0 20.0 20.1 20.1 20.1 20.1 20.1 20.2 20.2 20.2 20.1 20.1 20.1 20.1 20.1 20.1 20.1 20.1 20.1 20.0 20.0 20.0 20.0 20.0 20.0 20.0 20.0 20.1 20.1 20.1 20.1 20.1 20.2 20.2 20.2 20.2 20.2 20.1 20.1 20.1 20.1 20.1 20.1 20.1 20.1 20.1 20.0 20.0 20.0 20.0 20.0 20.0 20.0 20.1 20.1 20.1 20.1 20.2 20.2 20.2 20.2 20.2 20.2 20.2 20.1 20.1 20.1 20.1 20.1 20.1 20.1 20.1 20.1 20.0 20.0 20.0 20.0 20.0 20.0 20.1 20.1 20.1 20.2 20.2 20.2 20.3 20.3 20.2 20.2 20.2 20.1 20.1 20.1 20.1 20.1 20.1 20.1 20.1 20.1 20.1 20.0 20.0 20.0 20.0 20.0 20.1 20.1 20.2 20.2 20.2 20.3 20.3 20.3 20.3 20.2 20.2 20.2 20.2 20.1 20.1 20.1 20.1 20.1 20.1 20.1 20.1 20.1 20.0 20.0 20.0 20.0 20.1 20.1 20.2 20.2 20.3 20.3 20.4 20.4 20.3 20.3 20.2 20.2 20.2 20.2 20.1 20.1 20.1 20.1 20.1 20.1 20.1 20.1 20.1 20.0 20.0 20.0 20.1 20.2 20.2 20.2 20.3 20.3 20.4 20.5 20.4 20.3 20.3 20.2 20.2 20.2 20.2 20.1 20.1 20.1 20.1 20.1 20.1 20.1 20.1 20.0 20.0 20.0 20.1 20.2 20.2 20.3 20.3 20.4 20.5 20.6 20.5 20.4 20.3 20.3 20.3 20.2 20.2 20.2 20.1 20.1 20.1 20.1 20.1 20.1 20.1 20.1 20.0 20.0 20.1 20.2 20.3 20.6 20.7 20.8 21.1 20.9 20.6 20.5 20.4 20.4 20.3 20.3 20.2 20.2 20.2 20.1 20.1 20.1 20.1 20.1 20.1 20.1 20.0 20.0 20.2 20.6 26.9 33.6 27.8 22.1 22.7 21.9 21.0 20.6 20.5 20.4 20.4 20.3 20.3 20.2 20.2 20.2 20.1 20.1 20.1 20.1 20.1 20.1 20.1 20.1 20.4 29.0 66.6 86.4 55.2 39.4 41.4 35.6 28.9 22.3 20.7 20.5 20.4 20.4 20.3 20.3 20.2 20.2 20.2 20.1 20.1 20.1 20.1 20.1 20.1 20.1 22.7 57.0 144.0 162.7 104.2 108.0 119.4 100.1 74.5 38.5 22.0 20.7 20.6 20.5 20.4 20.3 20.2 20.2 20.2 20.1 20.1 20.1 20.1 20.1 20.1 20.1 28.0 93.2 217.8 226.4 163.8 230.6 281.7 232.5 156.7 72.5 28.0 21.0 20.7 20.6 20.5 20.4 20.3 20.2 20.2 20.2 20.1 20.1 20.1 20.1 20.1 20.1 32.8 116.8 259.0 261.9 205.3 327.5 430.2 365.5 229.1 98.7 35.3 21.4 20.9 20.7 20.5 20.4 20.3 20.3 20.2 20.2 20.1 20.1 20.1 20.1 20.1 20.1 31.7 114.3 258.0 261.2 200.5 308.9 402.6 343.7 219.0 97.3 34.8 21.4 20.9 20.7 20.5 20.4 20.4 20.3 20.2 20.2 20.2 20.1 20.1 20.1 20.1 20.1 27.7 94.6 220.2 259.5 227.3 247.0 251.9 207.1 144.0 69.3 27.1 21.1 20.8 20.6 20.5 20.4 20.3 20.3 20.2 20.2 20.2 20.2 20.1 20.1 20.1 20.1 23.5 59.1 140.8 206.0 205.0 168.2 130.9 105.1 73.3 36.3 21.8 20.8 20.6 20.5 20.4 20.4 20.3 20.3 20.2 20.2 20.2 20.1 20.1 20.1 20.1 20.1 20.3 26.7 55.4 89.5 87.2 66.5 55.3 44.2 30.1 21.8 20.6 20.4 20.4 20.3 20.2 20.2 20.2 20.2 20.1 20.1 20.1 20.1 20.1 20.1 20.1 20.1 20.0 20.0 20.0 20.0 20.0 20.0 20.0 20.1 20.1 20.1 20.1 20.0 20.0 20.0 20.0 20.0 20.0 20.0 20.0 20.0 20.0 20.0 20.0 20.0 20.0 20.0 20.0 20.0 20.0 20.0 20.0 20.0 20.0 20.1 20.1 20.1 20.1 20.0 20.0 20.0 20.0 20.0 20.0 20.0 20.0 20.0 20.0 20.0 20.0 20.0 20.0 20.0 20.0 20.0 20.0 20.0 20.0 20.0 20.0 20.1 20.1 20.1 20.1 20.1 20.0 20.0 20.0 20.0 20.0 20.0 20.0 20.0 20.0 20.0 20.0 20.0 20.0 20.0 20.0 20.0 20.0 20.0 20.0 20.0 20.1 20.1 20.1 20.1 20.1 20.1 20.0 20.0 20.0 20.0 20.0 20.0 20.0 20.0 20.0 20.0 20.0 20.0 20.0 20.0 20.0 20.0 20.0 20.1 20.1 20.1 20.1 20.1 20.1 20.1 20.1 20.1 20.0 20.0 20.0 20.0 20.0 20.0 20.0 20.0 20.0 20.0 20.0 20.0 20.0 20.0 20.0 20.0 20.1 20.1 20.1 20.1 20.1 20.1 20.1 20.1 20.1 20.1 20.1 20.0 20.0 20.0 20.0 20.0 20.0 20.0 20.0 20.0 20.0 20.0 20.0 20.0 20.0 20.1 20.1 20.1 20.1 20.1 20.1 20.1 20.1 20.1 20.1 20.1 20.1 20.1 20.0 20.0 20.0 20.0 20.0 20.0 20.0 20.0 20.0 20.0 20.0 20.0 20.0 20.1 20.1 20.1 20.1 20.1 20.1 20.1 20.1 20.1 20.1 20.1 20.1 20.1 20.1 20.1 20.0 20.0 20.0 20.0 20.0 20.0 20.0 20.0 20.0 20.0 20.0 20.1 20.1 20.1 20.1 20.1 20.1 20.1 20.1 20.1 20.1 20.1 20.1 20.1 20.1 20.1 20.1 20.1 20.0 20.0 20.0 20.0 20.0 20.0 20.0 20.0 20.0 20.1 20.1 20.1 20.1 20.1 20.1 20.1 20.1 20.1 20.1 20.1 20.1 20.1 20.1 20.1 20.1 20.1 20.1 20.0 20.0 20.0 20.0 20.0 20.0 20.0 20.0 20.1 20.1 20.1 20.1 20.1 20.2 20.2 20.2 20.1 20.1 20.1 20.1 20.1 20.1 20.1 20.1 20.1 20.1 20.1 20.0 20.0 20.0 20.0 20.0 20.0 20.1 20.1 20.1 20.1 20.2 20.2 20.2 20.2 20.2 20.2 20.1 20.1 20.1 20.1 20.1 20.1 20.1 20.1 20.1 20.1 20.1 20.0 20.0 20.0 20.0 20.0 20.1 20.1 20.1 20.1 20.2 20.2 20.2 20.2 20.2 20.2 20.2 20.1 20.1 20.1 20.1 20.1 20.1 20.1 20.1 20.1 20.1 20.1 20.0 20.0 20.0 20.0 20.1 20.1 20.1 20.2 20.2 20.2 20.3 20.3 20.2 20.2 20.2 20.2 20.2 20.1 20.1 20.1 20.1 20.1 20.1 20.1 20.1 20.1 20.1 20.0 20.0 20.0 20.1 20.1 20.1 20.2 20.2 20.2 20.3 20.3 20.3 20.3 20.2 20.2 20.2 20.2 20.1 20.1 20.1 20.1 20.1 20.1 20.1 20.1 20.1 20.0 20.0 20.0 20.1 20.1 20.1 20.2 20.2 20.3 20.4 20.4 20.4 20.3 20.3 20.2 20.2 20.2 20.2 20.1 20.1 20.1 20.1 20.1 20.1 20.1 20.1 20.1 20.0 20.0 20.1 20.2 20.3 20.3 20.3 20.5 20.6 20.5 20.5 20.4 20.3 20.3 20.2 20.2 20.2 20.2 20.1 20.1 20.1 20.1 20.1 20.1 20.1 20.1 20.0 20.0 20.1 20.8 23.9 23.4 20.8 21.3 21.1 20.9 20.7 20.5 20.4 20.3 20.3 20.3 20.2 20.2 20.2 20.1 20.1 20.1 20.1 20.1 20.1 20.1 20.1 20.1 21.6 33.2 50.7 42.0 32.7 38.3 32.4 28.8 26.3 21.6 20.5 20.4 20.4 20.3 20.3 20.2 20.2 20.2 20.1 20.1 20.1 20.1 20.1 20.1 20.1 20.1 29.6 72.9 108.5 86.3 94.1 124.0 101.4 90.1 76.8 38.2 21.6 20.5 20.4 20.4 20.3 20.2 20.2 20.2 20.1 20.1 20.1 20.1 20.1 20.1 20.1 20.1 44.1 123.6 167.3 140.3 198.1 269.2 242.4 217.1 175.9 83.6 28.1 20.8 20.6 20.4 20.4 20.3 20.2 20.2 20.2 20.1 20.1 20.1 20.1 20.1 20.1 20.1 55.3 155.4 200.6 173.5 270.3 371.8 367.2 336.5 255.9 125.1 36.8 21.0 20.7 20.5 20.4 20.3 20.3 20.2 20.2 20.1 20.1 20.1 20.1 20.1 20.1 20.1 53.6 153.2 200.0 170.1 259.5 357.0 354.0 325.0 248.1 122.6 36.2 21.0 20.7 20.5 20.4 20.3 20.3 20.2 20.2 20.2 20.1 20.1 20.1 20.1 20.1 20.1 39.7 113.3 170.0 167.3 210.6 263.7 251.2 221.9 167.5 78.4 27.1 20.8 20.6 20.5 20.4 20.3 20.3 20.2 20.2 20.2 20.1 20.1 20.1 20.1 20.1 20.1 25.6 56.7 101.8 125.6 130.6 140.7 139.7 119.0 78.6 35.3 21.3 20.6 20.5 20.4 20.3 20.3 20.2 20.2 20.2 20.2 20.1 20.1 20.1 20.1 20.1 20.1 20.3 24.5 37.6 49.4 46.7 45.7 49.2 41.6 28.5 21.3 20.4 20.4 20.3 20.2 20.2 20.2 20.1 20.1 20.1 20.1 20.1 20.1 20.1 20.1 20.1 20.1 20.0 20.0 20.0 20.0 20.0 20.0 20.0 20.0 20.1 20.1 20.0 20.0 20.0 20.0 20.0 20.0 20.0 20.0 20.0 20.0 20.0 20.0 20.0 20.0 20.0 20.0 20.0 20.0 20.0 20.0 20.0 20.0 20.0 20.0 20.1 20.1 20.1 20.0 20.0 20.0 20.0 20.0 20.0 20.0 20.0 20.0 20.0 20.0 20.0 20.0 20.0 20.0 20.0 20.0 20.0 20.0 20.0 20.0 20.0 20.0 20.1 20.1 20.1 20.0 20.0 20.0 20.0 20.0 20.0 20.0 20.0 20.0 20.0 20.0 20.0 20.0 20.0 20.0 20.0 20.0 20.0 20.0 20.0 20.0 20.0 20.1 20.1 20.1 20.1 20.0 20.0 20.0 20.0 20.0 20.0 20.0 20.0 20.0 20.0 20.0 20.0 20.0 20.0 20.0 20.0 20.0 20.0 20.0 20.0 20.0 20.1 20.1 20.1 20.1 20.1 20.0 20.0 20.0 20.0 20.0 20.0 20.0 20.0 20.0 20.0 20.0 20.0 20.0 20.0 20.0 20.0 20.0 20.0 20.1 20.1 20.1 20.1 20.1 20.1 20.1 20.1 20.1 20.0 20.0 20.0 20.0 20.0 20.0 20.0 20.0 20.0 20.0 20.0 20.0 20.0 20.0 20.0 20.0 20.1 20.1 20.1 20.1 20.1 20.1 20.1 20.1 20.1 20.1 20.0 20.0 20.0 20.0 20.0 20.0 20.0 20.0 20.0 20.0 20.0 20.0 20.0 20.0 20.0 20.0 20.1 20.1 20.1 20.1 20.1 20.1 20.1 20.1 20.1 20.1 20.1 20.1 20.0 20.0 20.0 20.0 20.0 20.0 20.0 20.0 20.0 20.0 20.0 20.0 20.0 20.1 20.1 20.1 20.1 20.1 20.1 20.1 20.1 20.1 20.1 20.1 20.1 20.1 20.1 20.1 20.0 20.0 20.0 20.0 20.0 20.0 20.0 20.0 20.0 20.0 20.0 20.1 20.1 20.1 20.1 20.1 20.1 20.1 20.1 20.1 20.1 20.1 20.1 20.1 20.1 20.1 20.1 20.0 20.0 20.0 20.0 20.0 20.0 20.0 20.0 20.0 20.0 20.1 20.1 20.1 20.1 20.1 20.1 20.1 20.1 20.1 20.1 20.1 20.1 20.1 20.1 20.1 20.1 20.1 20.1 20.0 20.0 20.0 20.0 20.0 20.0 20.0 20.0 20.1 20.1 20.1 20.1 20.1 20.1 20.1 20.1 20.1 20.1 20.1 20.1 20.1 20.1 20.1 20.1 20.1 20.1 20.1 20.0 20.0 20.0 20.0 20.0 20.0 20.0 20.1 20.1 20.1 20.1 20.1 20.2 20.2 20.2 20.1 20.1 20.1 20.1 20.1 20.1 20.1 20.1 20.1 20.1 20.1 20.1 20.0 20.0 20.0 20.0 20.0 20.0 20.1 20.1 20.1 20.1 20.2 20.2 20.2 20.2 20.2 20.2 20.1 20.1 20.1 20.1 20.1 20.1 20.1 20.1 20.1 20.1 20.1 20.0 20.0 20.0 20.0 20.0 20.1 20.1 20.1 20.1 20.2 20.2 20.3 20.2 20.2 20.2 20.2 20.1 20.1 20.1 20.1 20.1 20.1 20.1 20.1 20.1 20.1 20.0 20.0 20.0 20.0 20.1 20.1 20.1 20.1 20.1 20.2 20.3 20.3 20.3 20.2 20.2 20.2 20.2 20.2 20.1 20.1 20.1 20.1 20.1 20.1 20.1 20.1 20.0 20.0 20.0 20.0 20.1 20.1 20.2 20.2 20.2 20.2 20.3 20.4 20.3 20.3 20.3 20.2 20.2 20.2 20.2 20.1 20.1 20.1 20.1 20.1 20.1 20.1 20.1 20.0 20.0 20.0 20.1 20.4 20.4 20.2 20.3 20.3 20.4 20.5 20.5 20.4 20.3 20.3 20.2 20.2 20.2 20.2 20.1 20.1 20.1 20.1 20.1 20.1 20.1 20.1 20.0 20.0 21.4 27.3 26.0 23.2 26.1 25.0 23.2 23.5 22.7 20.7 20.4 20.3 20.3 20.2 20.2 20.2 20.1 20.1 20.1 20.1 20.1 20.1 20.1 20.1 20.1 20.1 29.2 50.6 45.0 47.7 68.9 68.4 62.4 66.9 58.0 30.0 20.8 20.4 20.3 20.3 20.2 20.2 20.2 20.1 20.1 20.1 20.1 20.1 20.1 20.1 20.1 20.1 44.2 82.6 73.9 100.3 157.6 171.1 178.1 186.4 151.6 66.6 24.4 20.5 20.4 20.4 20.3 20.2 20.2 20.2 20.1 20.1 20.1 20.1 20.1 20.1 20.1 20.1 56.2 103.8 95.6 143.1 228.2 259.2 290.5 297.6 235.2 107.1 30.0 20.7 20.5 20.4 20.3 20.3 20.2 20.2 20.1 20.1 20.1 20.1 20.1 20.1 20.1 20.0 54.3 102.0 93.0 135.3 214.3 238.5 263.5 275.7 223.2 101.9 29.4 20.7 20.5 20.4 20.3 20.3 20.2 20.2 20.1 20.1 20.1 20.1 20.1 20.1 20.1 20.1 38.0 70.9 71.6 88.7 131.8 155.5 169.4 172.9 133.6 58.3 23.6 20.6 20.5 20.4 20.3 20.3 20.2 20.2 20.1 20.1 20.1 20.1 20.1 20.1 20.1 20.1 23.6 34.6 42.0 43.3 54.8 76.7 88.8 80.7 52.6 26.9 20.7 20.5 20.4 20.3 20.3 20.2 20.2 20.2 20.1 20.1 20.1 20.1 20.1 20.1 20.1 20.1 20.1 20.8 22.4 22.7 23.9 28.2 31.3 28.8 23.1 20.5 20.3 20.3 20.2 20.2 20.2 20.1 20.1 20.1 20.1 20.1 20.1 20.1 20.1 20.1 20.1 20.1 20.0 20.0 20.0 20.0 20.0 20.0 20.0 20.0 20.0 20.0 20.0 20.0 20.0 20.0 20.0 20.0 20.0 20.0 20.0 20.0 20.0 20.0 20.0 20.0 20.0 20.0 20.0 20.0 20.0 20.0 20.0 20.0 20.0 20.0 20.0 20.0 20.0 20.0 20.0 20.0 20.0 20.0 20.0 20.0 20.0 20.0 20.0 20.0 20.0 20.0 20.0 20.0 20.0 20.0 20.0 20.0 20.0 20.0 20.0 20.0 20.0 20.0 20.0 20.0 20.0 20.0 20.0 20.0 20.0 20.0 20.0 20.0 20.0 20.0 20.0 20.0 20.0 20.0 20.0 20.0 20.0 20.0 20.0 20.0 20.0 20.0 20.0 20.0 20.0 20.0 20.0 20.0 20.0 20.0 20.0 20.0 20.0 20.0 20.0 20.0 20.0 20.0 20.0 20.0 20.0 20.0 20.0 20.0 20.0 20.0 20.0 20.0 20.0 20.1 20.0 20.0 20.0 20.0 20.0 20.0 20.0 20.0 20.0 20.0 20.0 20.0 20.0 20.0 20.0 20.0 20.0 20.0 20.0 20.0 20.0 20.0 20.0 20.0 20.1 20.1 20.0 20.0 20.0 20.0 20.0 20.0 20.0 20.0 20.0 20.0 20.0 20.0 20.0 20.0 20.0 20.0 20.0 20.0 20.0 20.1 20.1 20.1 20.1 20.1 20.1 20.1 20.1 20.0 20.0 20.0 20.0 20.0 20.0 20.0 20.0 20.0 20.0 20.0 20.0 20.0 20.0 20.0 20.0 20.0 20.1 20.1 20.1 20.1 20.1 20.1 20.1 20.1 20.1 20.0 20.0 20.0 20.0 20.0 20.0 20.0 20.0 20.0 20.0 20.0 20.0 20.0 20.0 20.0 20.0 20.0 20.1 20.1 20.1 20.1 20.1 20.1 20.1 20.1 20.1 20.1 20.0 20.0 20.0 20.0 20.0 20.0 20.0 20.0 20.0 20.0 20.0 20.0 20.0 20.0 20.0 20.0 20.1 20.1 20.1 20.1 20.1 20.1 20.1 20.1 20.1 20.1 20.1 20.1 20.1 20.0 20.0 20.0 20.0 20.0 20.0 20.0 20.0 20.0 20.0 20.0 20.0 20.1 20.1 20.1 20.1 20.1 20.1 20.1 20.1 20.1 20.1 20.1 20.1 20.1 20.1 20.1 20.0 20.0 20.0 20.0 20.0 20.0 20.0 20.0 20.0 20.0 20.0 20.1 20.1 20.1 20.1 20.1 20.1 20.1 20.1 20.1 20.1 20.1 20.1 20.1 20.1 20.1 20.1 20.1 20.0 20.0 20.0 20.0 20.0 20.0 20.0 20.0 20.0 20.1 20.1 20.1 20.1 20.1 20.1 20.1 20.1 20.1 20.1 20.1 20.1 20.1 20.1 20.1 20.1 20.1 20.1 20.0 20.0 20.0 20.0 20.0 20.0 20.0 20.0 20.1 20.1 20.1 20.1 20.1 20.2 20.2 20.2 20.1 20.1 20.1 20.1 20.1 20.1 20.1 20.1 20.1 20.1 20.1 20.0 