<?xml version="1.0"?>
<VTKFile type="RectilinearGrid" version="1.0" byte_order="LittleEndian" header_type="UInt64">
<RectilinearGrid WholeExtent="25 50 0 25 0 15">
<Piece Extent="25 50 0 25 0 15">
<Coordinates>
<DataArray type="Float64" Name="Array X-Axis" format="ascii" RangeMin="15.0" RangeMax="30.0">
15.0 15.6 16.2 16.8 17.4 18.0 18.6 19.2 19.8 20.4 21.0 21.6 22.2 22.8 23.4 24.0 24.6 25.2 25.8 26.4 27.0 27.6 28.2 28.8 29.4 30.0 
</DataArray>
<DataArray type="Float64" Name="Array Y-Axis" format="ascii" RangeMin="0.0" RangeMax="15.0">
0.0 0.6 1.2 1.8 2.4 3.0 3.6 4.2 4.8 5.4 6.0 6.6 7.2 7.8 8.4 9.0 9.6 10.2 10.8 11.4 12.0 12.6 13.2 13.8 14.4 15.0 
</DataArray>
<DataArray type="Float64" Name="Array Z-Axis" format="ascii" RangeMin="0.0" RangeMax="9.0">
0.0 0.6 1.2 1.8 2.4 3.0 3.6 4.2 4.8 5.4 6.0 6.6 7.2 7.8 8.4 9.0 
</DataArray>
</Coordinates>
<PointData>
<DataArray Name="TEMPERATURE" NumberOfComponents="1" type="Float64" format="ascii">
20.0 20.1 20.1 20.1 20.1 20.1 20.1 20.1 20.1 20.1 20.1 20.1 20.1 20.0 20.0 20.0 20.0 20.0 20.0 20.0 20.0 20.0 20.0 20.0 20.0 20.0 20.0 20.1 20.1 20.1 20.1 20.1 20.1 20.1 20.1 20.1 20.1 20.1 20.1 20.1 20.0 20.0 20.0 20.0 20.0 20.0 20.0 20.0 20.0 20.0 20.0 20.0 20.0 20.1 20.1 20.1 20.1 20.1 20.1 20.1 20.1 20.1 20.1 20.1 20.1 20.1 20.1 20.1 20.0 20.0 20.0 20.0 20.0 20.0 20.0 20.0 20.0 20.0 20.1 20.1 20.1 20.1 20.1 20.1 20.1 20.1 20.1 20.1 20.1 20.1 20.1 20.1 20.1 20.1 20.1 20.1 20.0 20.0 20.0 20.0 20.0 20.0 20.0 20.0 20.1 20.1 20.1 20.1 20.1 20.1 20.1 20.1 20.2 20.1 20.1 20.1 20.1 20.1 20.1 20.1 20.1 20.1 20.1 20.0 20.0 20.0 20.0 20.0 20.0 20.0 20.1 20.1 20.1 20.1 20.1 20.2 20.2 20.2 20.2 20.2 20.1 20.1 20.1 20.1 20.1 20.1 20.1 20.1 20.1 20.1 20.1 20.0 20.0 20.0 20.0 20.0 20.1 20.1 20.1 20.2 20.2 20.2 20.2 20.2 20.2 20.2 20.2 20.1 20.1 20.1 20.1 20.1 20.1 20.1 20.1 20.1 20.1 20.1 20.0 20.0 20.0 20.0 20.1 20.1 20.2 20.2 20.2 20.2 20.2 20.3 20.3 20.2 20.2 20.2 20.1 20.1 20.1 20.1 20.1 20.1 20.1 20.1 20.1 20.1 20.1 20.0 20.0 20.0 20.1 20.2 20.2 20.2 20.2 20.3 20.3 20.3 20.3 20.3 20.2 20.2 20.2 20.2 20.1 20.1 20.1 20.1 20.1 20.1 20.1 20.1 20.1 20.1 20.0 20.0 20.1 20.2 20.2 20.3 20.3 20.3 20.4 20.4 20.4 20.3 20.3 20.2 20.2 20.2 20.2 20.1 20.1 20.1 20.1 20.1 20.1 20.1 20.1 20.1 20.1 20.0 20.2 20.2 20.3 20.3 20.3 20.4 20.5 20.5 20.4 20.4 20.3 20.3 20.2 20.2 20.2 20.2 20.2 20.1 20.1 20.1 20.1 20.1 20.1 20.1 20.1 20.1 20.2 20.3 20.3 20.4 20.4 20.5 20.6 20.6 20.5 20.4 20.4 20.3 20.3 20.2 20.2 20.2 20.2 20.2 20.1 20.1 20.1 20.1 20.1 20.1 20.1 20.1 20.2 20.3 20.4 20.4 20.5 20.6 20.7 20.7 20.6 20.5 20.4 20.4 20.3 20.3 20.3 20.2 20.2 20.2 20.2 20.1 20.1 20.1 20.1 20.1 20.1 20.1 20.3 20.4 20.5 20.5 20.6 20.8 20.9 20.8 20.7 20.6 20.5 20.4 20.4 20.3 20.3 20.3 20.2 20.2 20.2 20.1 20.1 20.1 20.1 20.1 20.1 20.1 20.3 20.5 20.6 20.6 20.8 21.0 21.1 21.0 20.8 20.7 20.6 20.5 20.4 20.4 20.3 20.3 20.3 20.2 20.2 20.2 20.1 20.1 20.1 20.1 20.1 20.1 20.4 20.6 20.7 20.8 21.0 21.2 21.4 21.3 21.0 20.8 20.7 20.6 20.5 20.4 20.4 20.3 20.3 20.2 20.2 20.2 20.2 20.1 20.1 20.1 20.1 20.1 20.4 20.6 20.8 21.0 21.2 21.5 21.7 21.6 21.2 21.0 20.8 20.7 20.6 20.5 20.4 20.4 20.3 20.3 20.2 20.2 20.2 20.1 20.1 20.1 20.1 20.1 20.5 20.8 21.0 21.2 21.4 21.9 22.1 21.9 21.5 21.2 21.0 20.8 20.7 20.6 20.5 20.4 20.4 20.3 20.3 20.2 20.2 20.2 20.1 20.1 20.1 20.1 20.6 20.9 21.2 21.4 21.8 22.5 22.8 22.3 21.8 21.4 21.2 21.0 20.8 20.7 20.6 20.5 20.4 20.3 20.3 20.3 20.2 20.2 20.2 20.1 20.1 20.1 20.7 21.1 21.5 22.2 23.4 24.6 24.6 23.8 22.7 21.8 21.5 21.2 21.0 20.8 20.7 20.6 20.5 20.4 20.3 20.3 20.2 20.2 20.2 20.1 20.1 20.1 21.0 21.4 22.1 23.7 25.1 26.2 26.0 25.4 24.2 22.5 22.0 21.6 21.3 21.0 20.8 20.7 20.6 20.5 20.4 20.3 20.3 20.2 20.2 20.1 20.1 20.1 21.2 21.7 23.0 25.5 27.1 20.0 20.0 28.0 26.1 23.5 22.6 22.1 21.6 21.3 21.0 20.8 20.6 20.5 20.4 20.3 20.3 20.2 20.2 20.1 20.1 20.1 21.1 21.7 23.1 27.9 31.6 20.0 20.0 27.7 25.9 23.5 22.6 22.1 21.6 21.3 21.0 20.8 20.7 20.5 20.4 20.4 20.3 20.2 20.2 20.2 20.1 20.1 20.9 21.3 22.1 26.8 28.8 24.6 24.5 24.8 23.9 22.5 22.0 21.6 21.3 21.1 20.9 20.7 20.6 20.5 20.4 20.4 20.3 20.2 20.2 20.2 20.1 20.1 20.7 21.0 21.3 22.8 23.8 23.6 23.5 23.1 22.3 21.5 21.3 21.2 21.0 20.8 20.7 20.6 20.5 20.4 20.4 20.3 20.3 20.2 20.2 20.2 20.1 20.1 20.4 20.7 20.9 21.1 21.5 22.0 22.0 21.5 21.2 21.0 20.8 20.7 20.6 20.6 20.5 20.4 20.4 20.3 20.3 20.2 20.2 20.2 20.1 20.1 20.1 20.1 20.0 20.0 20.1 20.1 20.1 20.1 20.1 20.1 20.1 20.1 20.1 20.1 20.0 20.0 20.0 20.0 20.0 20.0 20.0 20.0 20.0 20.0 20.0 20.0 20.0 20.0 20.0 20.1 20.1 20.1 20.1 20.1 20.1 20.1 20.1 20.1 20.1 20.1 20.1 20.0 20.0 20.0 20.0 20.0 20.0 20.0 20.0 20.0 20.0 20.0 20.0 20.0 20.0 20.1 20.1 20.1 20.1 20.1 20.1 20.1 20.1 20.1 20.1 20.1 20.1 20.1 20.1 20.0 20.0 20.0 20.0 20.0 20.0 20.0 20.0 20.0 20.0 20.0 20.1 20.1 20.1 20.1 20.1 20.1 20.1 20.1 20.1 20.1 20.1 20.1 20.1 20.1 20.1 20.1 20.1 20.0 20.0 20.0 20.0 20.0 20.0 20.0 20.0 20.0 20.1 20.1 20.1 20.1 20.1 20.1 20.1 20.1 20.1 20.1 20.1 20.1 20.1 20.1 20.1 20.1 20.1 20.1 20.0 20.0 20.0 20.0 20.0 20.0 20.0 20.0 20.1 20.1 20.1 20.1 20.1 20.1 20.2 20.2 20.2 20.2 20.1 20.1 20.1 20.1 20.1 20.1 20.1 20.1 20.1 20.1 20.0 20.0 20.0 20.0 20.0 20.0 20.1 20.1 20.1 20.1 20.2 20.2 20.2 20.2 20.2 20.2 20.2 20.1 20.1 20.1 20.1 20.1 20.1 20.1 20.1 20.1 20.1 20.0 20.0 20.0 20.0 20.0 20.1 20.1 20.2 20.2 20.2 20.2 20.3 20.3 20.2 20.2 20.2 20.2 20.1 20.1 20.1 20.1 20.1 20.1 20.1 20.1 20.1 20.1 20.0 20.0 20.0 20.0 20.1 20.2 20.2 20.2 20.2 20.3 20.3 20.3 20.3 20.3 20.2 20.2 20.2 20.1 20.1 20.1 20.1 20.1 20.1 20.1 20.1 20.1 20.1 20.0 20.0 20.0 20.1 20.2 20.2 20.3 20.3 20.3 20.4 20.4 20.4 20.3 20.3 20.2 20.2 20.2 20.2 20.1 20.1 20.1 20.1 20.1 20.1 20.1 20.1 20.1 20.0 20.0 20.2 20.2 20.3 20.3 20.4 20.4 20.5 20.5 20.4 20.4 20.3 20.3 20.2 20.2 20.2 20.2 20.1 20.1 20.1 20.1 20.1 20.1 20.1 20.1 20.1 20.0 20.2 20.3 20.3 20.4 20.5 20.5 20.6 20.6 20.5 20.4 20.4 20.3 20.3 20.2 20.2 20.2 20.2 20.1 20.1 20.1 20.1 20.1 20.1 20.1 20.1 20.1 20.2 20.4 20.4 20.5 20.6 20.7 20.8 20.8 20.7 20.5 20.4 20.4 20.3 20.3 20.3 20.2 20.2 20.2 20.1 20.1 20.1 20.1 20.1 20.1 20.1 20.1 20.3 20.4 20.5 20.6 20.7 20.9 21.0 21.0 20.8 20.6 20.5 20.5 20.4 20.3 20.3 20.3 20.2 20.2 20.2 20.1 20.1 20.1 20.1 20.1 20.1 20.1 20.3 20.5 20.6 20.7 20.9 21.1 21.3 21.2 21.0 20.8 20.6 20.5 20.5 20.4 20.3 20.3 20.3 20.2 20.2 20.2 20.1 20.1 20.1 20.1 20.1 20.1 20.4 20.6 20.8 20.9 21.1 21.4 21.7 21.5 21.2 20.9 20.8 20.7 20.6 20.5 20.4 20.3 20.3 20.2 20.2 20.2 20.1 20.1 20.1 20.1 20.1 20.1 20.5 20.7 20.9 21.1 21.4 21.9 22.2 21.9 21.5 21.1 20.9 20.8 20.7 20.6 20.5 20.4 20.3 20.3 20.2 20.2 20.2 20.1 20.1 20.1 20.1 20.1 20.6 20.9 21.1 21.4 22.0 22.7 22.9 22.4 21.8 21.4 21.2 21.0 20.8 20.7 20.5 20.5 20.4 20.3 20.3 20.2 20.2 20.2 20.1 20.1 20.1 20.1 20.7 21.0 21.4 21.9 22.8 24.4 25.6 24.3 22.3 21.7 21.4 21.2 20.9 20.8 20.6 20.5 20.4 20.4 20.3 20.2 20.2 20.2 20.2 20.1 20.1 20.1 20.9 21.3 21.9 25.2 28.2 30.2 32.9 30.2 24.7 22.2 21.8 21.4 21.2 20.9 20.8 20.6 20.5 20.4 20.3 20.3 20.2 20.2 20.2 20.1 20.1 20.1 21.2 21.7 23.0 31.3 71.3 119.4 128.1 77.0 29.7 23.3 22.5 21.9 21.5 21.2 20.9 20.8 20.6 20.5 20.4 20.3 20.3 20.2 20.2 20.1 20.1 20.1 21.5 22.1 24.2 35.3 139.8 351.5 308.9 107.9 33.3 25.5 23.3 22.6 21.9 21.5 21.2 20.9 20.7 20.6 20.4 20.3 20.3 20.2 20.2 20.1 20.1 20.1 21.4 22.1 25.5 48.0 140.3 293.8 243.2 85.1 31.3 25.6 23.3 22.6 22.0 21.5 21.2 20.9 20.7 20.6 20.5 20.4 20.3 20.2 20.2 20.1 20.1 20.1 21.1 21.6 24.5 46.4 75.0 78.9 79.0 54.4 26.7 23.4 22.5 22.0 21.6 21.3 21.0 20.8 20.7 20.5 20.4 20.4 20.3 20.2 20.2 20.2 20.1 20.1 20.8 21.2 22.0 27.4 30.6 27.6 26.7 25.8 23.3 21.9 21.6 21.4 21.2 21.0 20.8 20.7 20.6 20.5 20.4 20.3 20.3 20.2 20.2 20.2 20.1 20.1 20.5 20.8 21.0 21.4 22.0 22.6 22.6 22.0 21.5 21.2 21.0 20.9 20.7 20.6 20.5 20.4 20.4 20.3 20.3 20.2 20.2 20.2 20.1 20.1 20.1 20.1 20.0 20.0 20.0 20.0 20.1 20.1 20.1 20.1 20.1 20.1 20.1 20.1 20.0 20.0 20.0 20.0 20.0 20.0 20.0 20.0 20.0 20.0 20.0 20.0 20.0 20.0 20.0 20.0 20.0 20.1 20.1 20.1 20.1 20.1 20.1 20.1 20.1 20.1 20.0 20.0 20.0 20.0 20.0 20.0 20.0 20.0 20.0 20.0 20.0 20.0 20.0 20.0 20.0 20.1 20.1 20.1 20.1 20.1 20.1 20.1 20.1 20.1 20.1 20.1 20.1 20.0 20.0 20.0 20.0 20.0 20.0 20.0 20.0 20.0 20.0 20.0 20.0 20.0 20.0 20.1 20.1 20.1 20.1 20.1 20.1 20.1 20.1 20.1 20.1 20.1 20.1 20.1 20.1 20.0 20.0 20.0 20.0 20.0 20.0 20.0 20.0 20.0 20.0 20.0 20.1 20.1 20.1 20.1 20.1 20.1 20.1 20.1 20.1 20.1 20.1 20.1 20.1 20.1 20.1 20.1 20.1 20.0 20.0 20.0 20.0 20.0 20.0 20.0 20.0 20.0 20.1 20.1 20.1 20.1 20.1 20.1 20.2 20.2 20.2 20.2 20.1 20.1 20.1 20.1 20.1 20.1 20.1 20.1 20.0 20.0 20.0 20.0 20.0 20.0 20.0 20.0 20.1 20.1 20.1 20.1 20.2 20.2 20.2 20.2 20.2 20.2 20.2 20.1 20.1 20.1 20.1 20.1 20.1 20.1 20.1 20.0 20.0 20.0 20.0 20.0 20.0 20.0 20.1 20.1 20.2 20.2 20.2 20.2 20.3 20.3 20.2 20.2 20.2 20.2 20.1 20.1 20.1 20.1 20.1 20.1 20.1 20.1 20.0 20.0 20.0 20.0 20.0 20.0 20.1 20.2 20.2 20.2 20.2 20.3 20.3 20.3 20.3 20.3 20.2 20.2 20.2 20.1 20.1 20.1 20.1 20.1 20.1 20.1 20.1 20.0 20.0 20.0 20.0 20.0 20.1 20.2 20.2 20.3 20.3 20.4 20.4 20.4 20.4 20.3 20.3 20.2 20.2 20.2 20.1 20.1 20.1 20.1 20.1 20.1 20.1 20.1 20.0 20.0 20.0 20.0 20.2 20.2 20.3 20.3 20.4 20.5 20.5 20.5 20.5 20.4 20.3 20.3 20.2 20.2 20.2 20.2 20.1 20.1 20.1 20.1 20.1 20.1 20.1 20.0 20.0 20.0 20.2 20.3 20.3 20.4 20.5 20.6 20.7 20.7 20.6 20.5 20.4 20.3 20.3 20.2 20.2 20.2 20.2 20.1 20.1 20.1 20.1 20.1 20.1 20.1 20.0 20.0 20.3 20.4 20.4 20.5 20.6 20.8 20.9 20.9 20.7 20.6 20.5 20.4 20.3 20.3 20.3 20.2 20.2 20.2 20.1 20.1 20.1 20.1 20.1 20.1 20.1 20.0 20.3 20.4 20.5 20.6 20.8 21.0 21.2 21.1 20.9 20.7 20.6 20.5 20.4 20.4 20.3 20.3 20.2 20.2 20.2 20.1 20.1 20.1 20.1 20.1 20.1 20.1 20.4 20.5 20.7 20.8 21.0 21.3 21.5 21.4 21.1 20.9 20.7 20.6 20.5 20.4 20.4 20.3 20.3 20.2 20.2 20.1 20.1 20.1 20.1 20.1 20.1 20.1 20.4 20.7 20.8 21.0 21.3 21.7 21.9 21.8 21.4 21.1 20.9 20.7 20.6 20.5 20.4 20.4 20.3 20.2 20.2 20.2 20.1 20.1 20.1 20.1 20.1 20.1 20.5 20.8 21.0 21.6 22.2 22.5 22.8 22.4 21.8 21.4 21.1 20.9 20.7 20.6 20.5 20.4 20.3 20.3 20.2 20.2 20.2 20.1 20.1 20.1 20.1 20.1 20.6 21.0 21.3 22.8 25.1 25.7 25.0 23.7 22.3 21.7 21.4 21.1 20.9 20.7 20.6 20.5 20.4 20.3 20.3 20.2 20.2 20.1 20.1 20.1 20.1 20.1 20.8 21.2 21.9 24.5 29.8 35.6 37.5 31.2 24.1 22.2 21.7 21.4 21.1 20.9 20.7 20.6 20.5 20.4 20.3 20.2 20.2 20.2 20.1 20.1 20.1 20.1 21.0 21.6 23.3 31.8 46.5 64.2 68.5 48.0 28.5 23.1 22.2 21.7 21.4 21.1 20.9 20.7 20.5 20.4 20.3 20.3 20.2 20.2 20.2 20.1 20.1 20.1 21.4 22.4 25.6 49.5 127.7 192.3 203.2 145.3 57.8 27.5 23.3 22.4 21.8 21.4 21.1 20.8 20.6 20.5 20.4 20.3 20.3 20.2 20.2 20.1 20.1 20.1 21.8 23.1 27.3 62.0 213.8 350.8 332.7 216.9 92.4 38.0 25.4 23.2 22.4 21.8 21.3 21.0 20.8 20.6 20.5 20.4 20.3 20.2 20.2 20.1 20.1 20.1 21.7 22.9 28.4 72.3 190.6 276.2 262.7 170.4 72.4 37.0 25.4 23.2 22.4 21.8 21.4 21.0 20.8 20.6 20.5 20.4 20.3 20.2 20.2 20.1 20.1 20.1 21.3 22.1 26.6 60.7 97.8 93.9 109.4 88.8 35.3 26.2 23.3 22.4 21.9 21.5 21.2 20.9 20.7 20.6 20.5 20.4 20.3 20.2 20.2 20.2 20.1 20.1 20.9 21.4 22.8 31.3 35.6 31.2 32.9 30.9 24.4 22.6 22.1 21.7 21.4 21.1 20.9 20.7 20.6 20.5 20.4 20.3 20.3 20.2 20.2 20.2 20.1 20.1 20.5 20.9 21.3 21.9 22.8 23.6 23.7 22.9 21.9 21.5 21.3 21.1 20.9 20.7 20.6 20.5 20.4 20.3 20.3 20.2 20.2 20.2 20.1 20.1 20.1 20.1 20.0 20.0 20.0 20.0 20.1 20.1 20.1 20.1 20.1 20.1 20.1 20.1 20.0 20.0 20.0 20.0 20.0 20.0 20.0 20.0 20.0 20.0 20.0 20.0 20.0 20.0 20.0 20.0 20.0 20.1 20.1 20.1 20.1 20.1 20.1 20.1 20.1 20.1 20.0 20.0 20.0 20.0 20.0 20.0 20.0 20.0 20.0 20.0 20.0 20.0 20.0 20.0 20.0 20.1 20.1 20.1 20.1 20.1 20.1 20.1 20.1 20.1 20.1 20.1 20.1 20.0 20.0 20.0 20.0 20.0 20.0 20.0 20.0 20.0 20.0 20.0 20.0 20.0 20.0 20.1 20.1 20.1 20.1 20.1 20.1 20.1 20.1 20.1 20.1 20.1 20.1 20.1 20.1 20.0 20.0 20.0 20.0 20.0 20.0 20.0 20.0 20.0 20.0 20.0 20.1 20.1 20.1 20.1 20.1 20.1 20.1 20.1 20.1 20.1 20.1 20.1 20.1 20.1 20.1 20.1 20.0 20.0 20.0 20.0 20.0 20.0 20.0 20.0 20.0 20.0 20.1 20.1 20.1 20.1 20.1 20.1 20.2 20.2 20.2 20.2 20.1 20.1 20.1 20.1 20.1 20.1 20.1 20.1 20.0 20.0 20.0 20.0 20.0 20.0 20.0 20.0 20.1 20.1 20.1 20.1 20.2 20.2 20.2 20.2 20.2 20.2 20.2 20.1 20.1 20.1 20.1 20.1 20.1 20.1 20.1 20.0 20.0 20.0 20.0 20.0 20.0 20.0 20.1 20.1 20.2 20.2 20.2 20.2 20.3 20.3 20.3 20.2 20.2 20.2 20.1 20.1 20.1 20.1 20.1 20.1 20.1 20.1 20.0 20.0 20.0 20.0 20.0 20.0 20.1 20.2 20.2 20.2 20.2 20.3 20.3 20.3 20.3 20.3 20.2 20.2 20.2 20.1 20.1 20.1 20.1 20.1 20.1 20.1 20.1 20.0 20.0 20.0 20.0 20.0 20.1 20.2 20.2 20.3 20.3 20.4 20.4 20.4 20.4 20.3 20.3 20.2 20.2 20.2 20.1 20.1 20.1 20.1 20.1 20.1 20.1 20.1 20.0 20.0 20.0 20.0 20.2 20.2 20.3 20.3 20.4 20.4 20.5 20.5 20.5 20.4 20.3 20.3 20.2 20.2 20.2 20.2 20.1 20.1 20.1 20.1 20.1 20.1 20.1 20.0 20.0 20.0 20.2 20.3 20.3 20.4 20.5 20.6 20.6 20.7 20.6 20.5 20.4 20.3 20.3 20.2 20.2 20.2 20.2 20.1 20.1 20.1 20.1 20.1 20.1 20.1 20.0 20.0 20.2 20.3 20.4 20.5 20.6 20.7 20.8 20.8 20.7 20.6 20.5 20.4 20.3 20.3 20.3 20.2 20.2 20.2 20.1 20.1 20.1 20.1 20.1 20.1 20.1 20.0 20.3 20.4 20.5 20.6 20.7 20.9 21.0 21.0 20.9 20.7 20.6 20.5 20.4 20.4 20.3 20.3 20.2 20.2 20.2 20.1 20.1 20.1 20.1 20.1 20.1 20.0 20.3 20.5 20.6 20.7 20.9 21.1 21.3 21.3 21.1 20.9 20.7 20.6 20.5 20.4 20.4 20.3 20.3 20.2 20.2 20.2 20.1 20.1 20.1 20.1 20.1 20.1 20.4 20.6 20.8 21.0 21.2 21.3 21.6 21.7 21.4 21.1 20.9 20.7 20.6 20.5 20.4 20.4 20.3 20.2 20.2 20.2 20.1 20.1 20.1 20.1 20.1 20.1 20.5 20.7 21.7 23.5 23.6 22.7 22.7 22.4 21.7 21.3 21.1 20.9 20.8 20.6 20.5 20.4 20.3 20.3 20.2 20.2 20.2 20.1 20.1 20.1 20.1 20.1 20.6 21.0 24.0 31.6 32.9 27.9 26.4 24.6 22.3 21.7 21.4 21.1 20.9 20.7 20.6 20.5 20.4 20.3 20.3 20.2 20.2 20.1 20.1 20.1 20.1 20.1 20.8 21.8 28.1 40.8 44.5 43.0 43.9 34.9 24.7 22.3 21.7 21.4 21.1 20.9 20.7 20.6 20.5 20.4 20.3 20.2 20.2 20.2 20.1 20.1 20.1 20.1 21.1 23.3 34.9 54.8 70.3 89.4 96.3 64.6 32.5 24.0 22.3 21.8 21.4 21.1 20.9 20.7 20.5 20.4 20.4 20.3 20.2 20.2 20.2 20.1 20.1 20.1 21.7 25.9 45.3 93.9 167.8 222.0 234.5 191.0 103.0 41.9 24.3 22.4 21.8 21.4 21.1 20.8 20.7 20.5 20.4 20.3 20.3 20.2 20.2 20.1 20.1 20.1 22.2 27.4 52.6 129.1 261.6 345.0 349.0 302.1 190.4 83.6 34.1 23.3 22.4 21.8 21.3 21.0 20.8 20.6 20.5 20.4 20.3 20.2 20.2 20.1 20.1 20.1 22.0 26.7 47.8 109.2 203.3 250.0 256.0 217.6 143.7 81.2 34.5 23.3 22.3 21.8 21.3 21.0 20.8 20.6 20.5 20.4 20.3 20.2 20.2 20.1 20.1 20.1 21.5 24.3 33.8 58.4 83.5 84.3 96.7 83.3 52.0 40.0 24.8 22.4 21.9 21.5 21.1 20.9 20.7 20.6 20.5 20.4 20.3 20.2 20.2 20.2 20.1 20.1 21.0 22.0 24.0 28.8 32.2 32.8 35.5 31.9 26.2 24.3 22.2 21.7 21.4 21.1 20.9 20.7 20.6 20.5 20.4 20.3 20.3 20.2 20.2 20.2 20.1 20.1 20.6 21.1 21.8 22.7 24.0 24.8 24.6 23.4 22.2 21.6 21.3 21.1 20.9 20.7 20.6 20.5 20.4 20.3 20.3 20.2 20.2 20.2 20.1 20.1 20.1 20.1 20.0 20.0 20.1 20.1 20.1 20.1 20.1 20.1 20.1 20.1 20.1 20.1 20.0 20.0 20.0 20.0 20.0 20.0 20.0 20.0 20.0 20.0 20.0 20.0 20.0 20.0 20.0 20.1 20.1 20.1 20.1 20.1 20.1 20.1 20.1 20.1 20.1 20.1 20.1 20.0 20.0 20.0 20.0 20.0 20.0 20.0 20.0 20.0 20.0 20.0 20.0 20.0 20.0 20.1 20.1 20.1 20.1 20.1 20.1 20.1 20.1 20.1 20.1 20.1 20.1 20.1 20.0 20.0 20.0 20.0 20.0 20.0 20.0 20.0 20.0 20.0 20.0 20.0 20.1 20.1 20.1 20.1 20.1 20.1 20.1 20.1 20.1 20.1 20.1 20.1 20.1 20.1 20.1 20.1 20.0 20.0 20.0 20.0 20.0 20.0 20.0 20.0 20.0 20.0 20.1 20.1 20.1 20.1 20.1 20.1 20.1 20.2 20.2 20.2 20.1 20.1 20.1 20.1 20.1 20.1 20.1 20.1 20.0 20.0 20.0 20.0 20.0 20.0 20.0 20.0 20.1 20.1 20.1 20.1 20.1 20.1 20.2 20.2 20.2 20.2 20.1 20.1 20.1 20.1 20.1 20.1 20.1 20.1 20.1 20.0 20.0 20.0 20.0 20.0 20.0 20.0 20.1 20.1 20.1 20.1 20.2 20.2 20.2 20.2 20.2 20.2 20.2 20.1 20.1 20.1 20.1 20.1 20.1 20.1 20.1 20.1 20.0 20.0 20.0 20.0 20.0 20.0 20.1 20.1 20.2 20.2 20.2 20.2 20.3 20.3 20.3 20.2 20.2 20.2 20.1 20.1 20.1 20.1 20.1 20.1 20.1 20.1 20.1 20.0 20.0 20.0 20.0 20.0 20.1 20.2 20.2 20.2 20.2 20.3 20.3 20.3 20.3 20.3 20.2 20.2 20.2 20.1 20.1 20.1 20.1 20.1 20.1 20.1 20.1 20.1 20.0 20.0 20.0 20.0 20.1 20.2 20.2 20.3 20.3 20.3 20.4 20.4 20.4 20.3 20.3 20.2 20.2 20.2 20.2 20.1 20.1 20.1 20.1 20.1 20.1 20.1 20.1 20.0 20.0 20.0 20.2 20.2 20.3 20.3 20.3 20.4 20.5 20.5 20.5 20.4 20.3 20.3 20.2 20.2 20.2 20.2 20.1 20.1 20.1 20.1 20.1 20.1 20.1 20.1 20.0 20.0 20.2 20.3 20.3 20.4 20.4 20.5 20.6 20.6 20.5 20.5 20.4 20.3 20.3 20.2 20.2 20.2 20.2 20.1 20.1 20.1 20.1 20.1 20.1 20.1 20.1 20.0 20.2 20.3 20.4 20.4 20.5 20.6 20.7 20.7 20.6 20.5 20.4 20.4 20.3 20.3 20.3 20.2 20.2 20.2 20.1 20.1 20.1 20.1 20.1 20.1 20.1 20.1 20.3 20.4 20.4 20.5 20.6 20.7 20.8 20.9 20.8 20.6 20.5 20.5 20.4 20.4 20.3 20.3 20.2 20.2 20.2 20.1 20.1 20.1 20.1 20.1 20.1 20.1 20.3 20.4 20.5 20.6 20.7 20.8 21.0 21.1 21.0 20.8 20.7 20.6 20.5 20.4 20.4 20.3 20.3 20.2 20.2 20.2 20.1 20.1 20.1 20.1 20.1 20.1 20.3 20.5 21.0 21.2 20.9 20.9 21.2 21.4 21.2 21.0 20.8 20.7 20.6 20.5 20.4 20.4 20.3 20.3 20.2 20.2 20.1 20.1 20.1 20.1 20.1 20.1 20.5 21.7 27.3 28.9 24.0 22.0 22.2 22.1 21.5 21.2 21.0 20.8 20.7 20.6 20.5 20.4 20.3 20.3 20.2 20.2 20.2 20.1 20.1 20.1 20.1 20.1 20.9 25.9 42.4 50.3 35.7 25.1 25.1 23.9 22.1 21.5 21.2 21.0 20.8 20.7 20.6 20.5 20.4 20.3 20.3 20.2 20.2 20.2 20.1 20.1 20.1 20.1 21.8 33.2 58.2 69.1 48.0 33.3 36.0 30.4 23.7 22.1 21.5 21.2 21.0 20.8 20.7 20.5 20.5 20.4 20.3 20.3 20.2 20.2 20.1 20.1 20.1 20.1 23.6 41.0 72.3 87.1 66.5 59.3 70.9 54.5 32.4 24.7 22.2 21.6 21.2 21.0 20.8 20.6 20.5 20.4 20.4 20.3 20.2 20.2 20.2 20.1 20.1 20.1 26.5 50.2 97.4 144.7 139.1 155.6 196.8 179.4 119.0 51.9 25.2 22.2 21.6 21.3 21.0 20.8 20.6 20.5 20.4 20.3 20.3 20.2 20.2 20.1 20.1 20.1 27.8 54.8 118.2 202.6 212.1 235.1 291.1 288.4 233.5 121.5 42.8 23.2 22.1 21.6 21.2 20.9 20.7 20.6 20.5 20.4 20.3 20.2 20.2 20.1 20.1 20.1 26.9 51.3 103.8 161.8 161.8 162.5 188.4 189.0 187.6 124.4 43.5 23.2 22.1 21.6 21.2 21.0 20.8 20.6 20.5 20.4 20.3 20.2 20.2 20.2 20.1 20.1 24.8 39.6 61.6 72.0 66.5 64.5 66.6 60.9 70.8 57.0 25.9 22.2 21.7 21.3 21.0 20.8 20.7 20.6 20.5 20.4 20.3 20.3 20.2 20.2 20.1 20.1 23.2 28.3 32.2 32.2 32.6 35.9 35.2 30.1 29.2 26.6 22.1 21.6 21.3 21.0 20.9 20.7 20.6 20.5 20.4 20.3 20.3 20.2 20.2 20.2 20.2 20.1 21.9 25.0 26.5 27.6 27.9 26.8 25.8 23.7 22.3 21.6 21.2 21.0 20.9 20.7 20.6 20.5 20.4 20.3 20.3 20.2 20.2 20.2 20.2 20.1 20.1 20.1 20.0 20.1 20.1 20.1 20.1 20.1 20.1 20.1 20.1 20.1 20.1 20.1 20.1 20.0 20.0 20.0 20.0 20.0 20.0 20.0 20.0 20.0 20.0 20.0 20.0 20.0 20.0 20.1 20.1 20.1 20.1 20.1 20.1 20.1 20.1 20.1 20.1 20.1 20.1 20.1 20.0 20.0 20.0 20.0 20.0 20.0 20.0 20.0 20.0 20.0 20.0 20.0 20.0 20.1 20.1 20.1 20.1 20.1 20.1 20.1 20.1 20.1 20.1 20.1 20.1 20.1 20.1 20.1 20.0 20.0 20.0 20.0 20.0 20.0 20.0 20.0 20.0 20.0 20.1 20.1 20.1 20.1 20.1 20.1 20.1 20.1 20.1 20.1 20.1 20.1 20.1 20.1 20.1 20.1 20.1 20.1 20.0 20.0 20.0 20.0 20.0 20.0 20.0 20.0 20.1 20.1 20.1 20.1 20.1 20.1 20.1 20.2 20.2 20.2 20.1 20.1 20.1 20.1 20.1 20.1 20.1 20.1 20.1 20.0 20.0 20.0 20.0 20.0 20.0 20.0 20.1 20.1 20.1 20.1 20.1 20.1 20.2 20.2 20.2 20.2 20.2 20.1 20.1 20.1 20.1 20.1 20.1 20.1 20.1 20.1 20.0 20.0 20.0 20.0 20.0 20.0 20.1 20.1 20.1 20.1 20.2 20.2 20.2 20.2 20.2 20.2 20.2 20.1 20.1 20.1 20.1 20.1 20.1 20.1 20.1 20.1 20.1 20.0 20.0 20.0 20.0 20.0 20.1 20.1 20.2 20.2 20.2 20.2 20.2 20.3 20.3 20.2 20.2 20.2 20.1 20.1 20.1 20.1 20.1 20.1 20.1 20.1 20.1 20.1 20.0 20.0 20.0 20.0 20.1 20.2 20.2 20.2 20.2 20.2 20.3 20.3 20.3 20.3 20.2 20.2 20.2 20.1 20.1 20.1 20.1 20.1 20.1 20.1 20.1 20.1 20.1 20.0 20.0 20.0 20.1 20.2 20.2 20.2 20.3 20.3 20.3 20.4 20.3 20.3 20.3 20.2 20.2 20.2 20.2 20.1 20.1 20.1 20.1 20.1 20.1 20.1 20.1 20.1 20.0 20.0 20.1 20.2 20.2 20.3 20.3 20.3 20.4 20.4 20.4 20.3 20.3 20.3 20.2 20.2 20.2 20.2 20.1 20.1 20.1 20.1 20.1 20.1 20.1 20.1 20.1 20.1 20.2 20.2 20.3 20.3 20.4 20.4 20.5 20.5 20.5 20.4 20.3 20.3 20.3 20.2 20.2 20.2 20.2 20.2 20.1 20.1 20.1 20.1 20.1 20.1 20.1 20.1 20.2 20.3 20.3 20.4 20.4 20.5 20.6 20.6 20.6 20.5 20.4 20.4 20.3 20.3 20.2 20.2 20.2 20.2 20.2 20.1 20.1 20.1 20.1 20.1 20.1 20.1 20.2 20.3 20.4 20.4 20.5 20.5 20.7 20.8 20.7 20.6 20.5 20.4 20.4 20.3 20.3 20.3 20.2 20.2 20.2 20.1 20.1 20.1 20.1 20.1 20.1 20.1 20.2 20.4 20.4 20.5 20.5 20.6 20.8 20.9 20.8 20.7 20.6 20.5 20.4 20.4 20.3 20.3 20.3 20.2 20.2 20.2 20.1 20.1 20.1 20.1 20.1 20.1 20.3 20.7 21.1 21.0 20.6 20.7 21.0 21.2 21.0 20.8 20.7 20.6 20.5 20.5 20.4 20.3 20.3 20.2 20.2 20.2 20.2 20.1 20.1 20.1 20.1 20.1 21.2 28.5 35.8 30.3 22.6 21.3 21.6 21.6 21.3 21.0 20.8 20.7 20.6 20.5 20.4 20.4 20.3 20.3 20.2 20.2 20.2 20.1 20.1 20.1 20.1 20.1 27.6 50.2 70.7 54.1 27.9 22.4 22.9 22.4 21.7 21.2 21.0 20.9 20.7 20.6 20.5 20.4 20.4 20.3 20.3 20.2 20.2 20.2 20.1 20.1 20.1 20.1 38.6 74.8 99.4 72.1 32.8 25.5 27.8 25.5 23.0 21.9 21.3 21.0 20.9 20.7 20.6 20.5 20.4 20.3 20.3 20.2 20.2 20.2 20.2 20.1 20.1 20.1 47.3 90.6 114.9 83.7 39.9 33.5 38.7 34.3 29.0 24.8 22.0 21.3 21.1 20.9 20.7 20.6 20.5 20.4 20.3 20.3 20.2 20.2 20.2 20.1 20.1 20.1 55.9 107.3 148.3 125.7 72.9 86.9 118.7 122.6 95.5 45.8 25.2 21.9 21.4 21.1 20.9 20.7 20.6 20.5 20.4 20.3 20.3 20.2 20.2 20.1 20.1 20.1 59.9 117.4 179.8 169.7 110.5 143.6 200.7 227.0 212.0 115.4 40.9 22.8 21.7 21.3 21.0 20.8 20.6 20.5 20.4 20.3 20.3 20.2 20.2 20.1 20.1 20.1 55.4 108.7 158.9 139.9 88.1 104.6 139.9 175.5 198.9 124.6 41.3 22.7 21.7 21.3 21.0 20.8 20.7 20.5 20.4 20.4 20.3 20.2 20.2 20.2 20.1 20.1 46.7 79.4 96.1 73.9 48.3 51.4 57.2 70.0 84.2 56.5 25.6 21.8 21.4 21.1 20.9 20.7 20.6 20.5 20.4 20.3 20.3 20.3 20.2 20.2 20.2 20.1 39.8 53.8 52.8 44.1 38.9 42.1 40.2 33.1 31.1 26.3 22.0 21.3 21.1 20.9 20.7 20.6 20.5 20.4 20.4 20.3 20.3 20.2 20.2 20.2 20.2 20.1 31.0 43.7 46.1 43.6 37.4 32.2 29.7 25.0 23.0 21.6 21.1 20.9 20.8 20.6 20.5 20.4 20.4 20.3 20.3 20.2 20.2 20.2 20.2 20.1 20.1 20.1 20.0 20.1 20.1 20.1 20.1 20.1 20.1 20.1 20.1 20.1 20.1 20.1 20.1 20.0 20.0 20.0 20.0 20.0 20.0 20.0 20.0 20.0 20.0 20.0 20.0 20.0 20.0 20.1 20.1 20.1 20.1 20.1 20.1 20.1 20.1 20.1 20.1 20.1 20.1 20.1 20.0 20.0 20.0 20.0 20.0 20.0 20.0 20.0 20.0 20.0 20.0 20.0 20.0 20.1 20.1 20.1 20.1 20.1 20.1 20.1 20.1 20.1 20.1 20.1 20.1 20.1 20.1 20.1 20.1 20.0 20.0 20.0 20.0 20.0 20.0 20.0 20.0 20.0 20.1 20.1 20.1 20.1 20.1 20.1 20.1 20.1 20.1 20.1 20.1 20.1 20.1 20.1 20.1 20.1 20.1 20.1 20.0 20.0 20.0 20.0 20.0 20.0 20.0 20.0 20.1 20.1 20.1 20.1 20.1 20.1 20.1 20.1 20.1 20.1 20.1 20.1 20.1 20.1 20.1 20.1 20.1 20.1 20.1 20.1 20.0 20.0 20.0 20.0 20.0 20.0 20.1 20.1 20.1 20.1 20.1 20.1 20.1 20.2 20.2 20.2 20.1 20.1 20.1 20.1 20.1 20.1 20.1 20.1 20.1 20.1 20.1 20.0 20.0 20.0 20.0 20.0 20.1 20.1 20.1 20.1 20.1 20.2 20.2 20.2 20.2 20.2 20.2 20.1 20.1 20.1 20.1 20.1 20.1 20.1 20.1 20.1 20.1 20.1 20.0 20.0 20.0 20.0 20.1 20.1 20.1 20.2 20.2 20.2 20.2 20.2 20.2 20.2 20.2 20.1 20.1 20.1 20.1 20.1 20.1 20.1 20.1 20.1 20.1 20.1 20.1 20.0 20.0 20.0 20.1 20.1 20.2 20.2 20.2 20.2 20.2 20.2 20.2 20.2 20.2 20.2 20.1 20.1 20.1 20.1 20.1 20.1 20.1 20.1 20.1 20.1 20.1 20.1 20.0 20.0 20.1 20.2 20.2 20.2 20.2 20.3 20.3 20.3 20.3 20.3 20.2 20.2 20.2 20.2 20.1 20.1 20.1 20.1 20.1 20.1 20.1 20.1 20.1 20.1 20.1 20.1 20.1 20.2 20.2 20.2 20.3 20.3 20.3 20.3 20.3 20.3 20.3 20.2 20.2 20.2 20.2 20.2 20.1 20.1 20.1 20.1 20.1 20.1 20.1 20.1 20.1 20.1 20.1 20.2 20.2 20.3 20.3 20.3 20.4 20.4 20.4 20.3 20.3 20.3 20.2 20.2 20.2 20.2 20.2 20.1 20.1 20.1 20.1 20.1 20.1 20.1 20.1 20.1 20.2 20.2 20.3 20.3 20.3 20.4 20.5 20.5 20.5 20.4 20.4 20.3 20.3 20.2 20.2 20.2 20.2 20.2 20.1 20.1 20.1 20.1 20.1 20.1 20.1 20.1 20.2 20.3 20.3 20.3 20.4 20.5 20.6 20.6 20.6 20.5 20.4 20.4 20.3 20.3 20.3 20.2 20.2 20.2 20.2 20.1 20.1 20.1 20.1 20.1 20.1 20.1 20.2 20.3 20.3 20.3 20.4 20.5 20.7 20.8 20.7 20.6 20.5 20.4 20.4 20.3 20.3 20.3 20.2 20.2 20.2 20.2 20.1 20.1 20.1 20.1 20.1 20.1 20.3 20.7 20.7 20.5 20.5 20.6 20.9 21.0 20.9 20.7 20.6 20.5 20.5 20.4 20.3 20.3 20.3 20.2 20.2 20.2 20.1 20.1 20.1 20.1 20.1 20.1 23.2 33.1 34.1 24.7 21.3 21.0 21.1 21.2 21.1 20.9 20.7 20.6 20.5 20.5 20.4 20.3 20.3 20.2 20.2 20.2 20.2 20.1 20.1 20.1 20.1 20.1 42.9 73.8 68.7 34.6 22.8 22.5 21.9 21.7 21.4 21.0 20.9 20.7 20.6 20.5 20.4 20.4 20.3 20.3 20.2 20.2 20.2 20.2 20.1 20.1 20.1 20.1 78.1 117.7 96.0 44.1 28.9 27.9 24.7 23.8 22.9 21.7 21.1 20.9 20.7 20.6 20.5 20.4 20.4 20.3 20.3 20.2 20.2 20.2 20.1 20.1 20.1 20.1 97.8 137.8 107.0 56.6 49.5 45.2 33.8 29.6 28.3 25.1 21.8 21.1 20.9 20.7 20.6 20.5 20.4 20.4 20.3 20.3 20.2 20.2 20.2 20.1 20.1 20.1 106.9 157.1 130.3 77.6 82.5 87.8 70.8 72.7 66.4 40.3 24.7 21.6 21.1 20.9 20.7 20.6 20.5 20.4 20.3 20.3 20.2 20.2 20.2 20.1 20.1 20.1 111.7 171.0 152.6 98.7 118.3 145.2 137.6 163.8 172.2 99.7 34.2 22.4 21.4 21.1 20.9 20.7 20.6 20.4 20.4 20.3 20.2 20.2 20.2 20.1 20.1 20.1 101.8 157.7 137.8 88.2 104.6 127.7 130.4 174.3 188.8 105.6 34.5 22.4 21.4 21.1 20.9 20.7 20.6 20.4 20.4 20.3 20.3 20.2 20.2 20.1 20.1 20.1 88.5 120.0 99.7 63.2 62.4 70.2 71.4 92.6 89.3 47.4 25.4 21.6 21.1 20.9 20.7 20.6 20.5 20.4 20.4 20.3 20.3 20.2 20.2 20.2 20.1 20.1 77.1 93.4 78.1 59.4 54.7 58.2 53.4 45.4 37.5 26.7 22.2 21.1 20.9 20.8 20.6 20.5 20.4 20.4 20.3 20.3 20.2 20.2 20.2 20.2 20.2 20.1 52.1 78.3 79.9 67.6 53.0 43.5 37.4 30.6 25.8 22.0 21.0 20.8 20.7 20.6 20.5 20.4 20.3 20.3 20.2 20.2 20.2 20.2 20.1 20.1 20.1 20.1 20.0 20.1 20.1 20.1 20.1 20.1 20.1 20.1 20.1 20.1 20.1 20.1 20.1 20.0 20.0 20.0 20.0 20.0 20.0 20.0 20.0 20.0 20.0 20.0 20.0 20.0 20.0 20.1 20.1 20.1 20.1 20.1 20.1 20.1 20.1 20.1 20.1 20.1 20.1 20.1 20.0 20.0 20.0 20.0 20.0 20.0 20.0 20.0 20.0 20.0 20.0 20.0 20.0 20.1 20.1 20.1 20.1 20.1 20.1 20.1 20.1 20.1 20.1 20.1 20.1 20.1 20.1 20.1 20.0 20.0 20.0 20.0 20.0 20.0 20.0 20.0 20.0 20.0 20.0 20.1 20.1 20.1 20.1 20.1 20.1 20.1 20.1 20.1 20.1 20.1 20.1 20.1 20.1 20.1 20.1 20.1 20.0 20.0 20.0 20.0 20.0 20.0 20.0 20.0 20.1 20.1 20.1 20.1 20.1 20.1 20.1 20.1 20.1 20.1 20.1 20.1 20.1 20.1 20.1 20.1 20.1 20.1 20.1 20.0 20.0 20.0 20.0 20.0 20.0 20.0 20.1 20.1 20.1 20.1 20.1 20.1 20.1 20.1 20.1 20.1 20.1 20.1 20.1 20.1 20.1 20.1 20.1 20.1 20.1 20.1 20.1 20.0 20.0 20.0 20.0 20.0 20.1 20.1 20.1 20.1 20.1 20.1 20.1 20.1 20.2 20.2 20.1 20.1 20.1 20.1 20.1 20.1 20.1 20.1 20.1 20.1 20.1 20.1 20.0 20.0 20.0 20.0 20.1 20.1 20.1 20.1 20.1 20.2 20.2 20.2 20.2 20.2 20.2 20.1 20.1 20.1 20.1 20.1 20.1 20.1 20.1 20.1 20.1 20.1 20.1 20.0 20.0 20.0 20.1 20.1 20.1 20.2 20.2 20.2 20.2 20.2 20.2 20.2 20.2 20.1 20.1 20.1 20.1 20.1 20.1 20.1 20.1 20.1 20.1 20.1 20.1 20.1 20.0 20.0 20.1 20.1 20.2 20.2 20.2 20.2 20.2 20.2 20.2 20.2 20.2 20.2 20.2 20.1 20.1 20.1 20.1 20.1 20.1 20.1 20.1 20.1 20.1 20.1 20.1 20.0 20.1 20.1 20.2 20.2 20.2 20.3 20.3 20.3 20.3 20.3 20.2 20.2 20.2 20.2 20.1 20.1 20.1 20.1 20.1 20.1 20.1 20.1 20.1 20.1 20.1 20.1 20.1 20.2 20.2 20.2 20.3 20.3 20.3 20.4 20.3 20.3 20.3 20.2 20.2 20.2 20.2 20.2 20.1 20.1 20.1 20.1 20.1 20.1 20.1 20.1 20.1 20.1 20.1 20.2 20.2 20.3 20.3 20.3 20.4 20.4 20.4 20.3 20.3 20.3 20.2 20.2 20.2 20.2 20.2 20.1 20.1 20.1 20.1 20.1 20.1 20.1 20.1 20.1 20.1 20.2 20.2 20.3 20.3 20.4 20.5 20.5 20.5 20.4 20.4 20.3 20.3 20.3 20.2 20.2 20.2 20.2 20.1 20.1 20.1 20.1 20.1 20.1 20.1 20.1 20.2 20.2 20.2 20.3 20.4 20.5 20.6 20.7 20.6 20.5 20.4 20.4 20.3 20.3 20.3 20.2 20.2 20.2 20.2 20.1 20.1 20.1 20.1 20.1 20.1 20.1 20.2 20.3 20.3 20.3 20.4 20.6 20.7 20.8 20.7 20.6 20.5 20.4 20.4 20.3 20.3 20.3 20.2 20.2 20.2 20.1 20.1 20.1 20.1 20.1 20.1 20.1 22.8 26.6 24.8 21.0 20.7 20.7 20.9 21.0 20.9 20.7 20.6 20.5 20.5 20.4 20.3 20.3 20.2 20.2 20.2 20.2 20.1 20.1 20.1 20.1 20.1 20.1 46.7 57.1 38.5 22.8 22.7 21.8 21.4 21.5 21.2 20.9 20.7 20.6 20.5 20.5 20.4 20.3 20.3 20.2 20.2 20.2 20.2 20.1 20.1 20.1 20.1 20.1 99.9 103.9 59.4 35.7 37.0 31.0 27.0 25.8 23.8 21.8 20.9 20.7 20.6 20.5 20.4 20.4 20.3 20.3 20.2 20.2 20.2 20.2 20.1 20.1 20.1 20.1 142.0 146.3 99.9 84.6 90.6 68.4 44.2 33.6 31.2 26.7 22.0 20.9 20.8 20.6 20.5 20.4 20.4 20.3 20.3 20.2 20.2 20.2 20.1 20.1 20.1 20.1 155.8 178.4 136.6 122.7 135.7 102.2 64.8 53.5 55.1 41.6 25.4 21.5 20.9 20.8 20.6 20.5 20.4 20.3 20.3 20.2 20.2 20.2 20.1 20.1 20.1 20.1 155.9 191.5 148.2 133.0 156.8 133.5 111.9 125.3 140.0 87.0 31.3 22.3 21.2 20.9 20.7 20.6 20.5 20.4 20.3 20.3 20.2 20.2 20.1 20.1 20.1 20.1 149.0 182.4 142.4 128.0 149.6 135.1 130.7 162.4 164.8 89.9 32.5 22.4 21.1 20.9 20.7 20.6 20.5 20.4 20.3 20.3 20.2 20.2 20.2 20.1 20.1 20.1 139.5 149.6 114.6 94.9 102.9 98.5 96.2 110.9 96.0 50.4 27.6 21.5 20.9 20.8 20.6 20.5 20.4 20.4 20.3 20.3 20.2 20.2 20.2 20.1 20.1 20.1 120.0 131.9 107.3 87.9 86.0 81.3 70.7 66.1 54.4 34.0 23.1 21.0 20.8 20.6 20.5 20.5 20.4 20.3 20.3 20.2 20.2 20.2 20.2 20.1 20.1 20.1 73.2 110.6 109.8 88.5 69.3 52.1 41.9 38.6 31.0 23.2 20.9 20.7 20.6 20.5 20.4 20.3 20.3 20.2 20.2 20.2 20.2 20.1 20.1 20.1 20.1 20.1 20.0 20.0 20.1 20.1 20.1 20.1 20.0 20.1 20.1 20.1 20.1 20.1 20.1 20.0 20.0 20.0 20.0 20.0 20.0 20.0 20.0 20.0 20.0 20.0 20.0 20.0 20.0 20.0 20.1 20.1 20.1 20.1 20.1 20.1 20.1 20.1 20.1 20.1 20.1 20.0 20.0 20.0 20.0 20.0 20.0 20.0 20.0 20.0 20.0 20.0 20.0 20.0 20.0 20.1 20.1 20.1 20.1 20.1 20.1 20.1 20.1 20.1 20.1 20.1 20.1 20.1 20.0 20.0 20.0 20.0 20.0 20.0 20.0 20.0 20.0 20.0 20.0 20.0 20.0 20.1 20.1 20.1 20.1 20.1 20.1 20.1 20.1 20.1 20.1 20.1 20.1 20.1 20.1 20.1 20.0 20.0 20.0 20.0 20.0 20.0 20.0 20.0 20.0 20.0 20.0 20.1 20.1 20.1 20.1 20.1 20.1 20.1 20.1 20.1 20.1 20.1 20.1 20.1 20.1 20.1 20.1 20.1 20.0 20.0 20.0 20.0 20.0 20.0 20.0 20.0 20.1 20.1 20.1 20.1 20.1 20.1 20.1 20.1 20.1 20.1 20.1 20.1 20.1 20.1 20.1 20.1 20.1 20.1 20.1 20.1 20.0 20.0 20.0 20.0 20.0 20.0 20.1 20.1 20.1 20.1 20.1 20.1 20.1 20.1 20.1 20.1 20.1 20.1 20.1 20.1 20.1 20.1 20.1 20.1 20.1 20.1 20.1 20.0 20.0 20.0 20.0 20.0 20.1 20.1 20.1 20.1 20.1 20.1 20.1 20.1 20.1 20.1 20.1 20.1 20.1 20.1 20.1 20.1 20.1 20.1 20.1 20.1 20.1 20.1 20.0 20.0 20.0 20.0 20.1 20.1 20.1 20.1 20.2 20.2 20.2 20.2 20.2 20.2 20.1 20.1 20.1 20.1 20.1 20.1 20.1 20.1 20.1 20.1 20.1 20.1 20.1 20.0 20.0 20.0 20.1 20.1 20.1 20.2 20.2 20.2 20.2 20.2 20.2 20.2 20.2 20.1 20.1 20.1 20.1 20.1 20.1 20.1 20.1 20.1 20.1 20.1 20.1 20.1 20.0 20.0 20.1 20.1 20.2 20.2 20.2 20.2 20.2 20.2 20.2 20.2 20.2 20.2 20.2 20.1 20.1 20.1 20.1 20.1 20.1 20.1 20.1 20.1 20.1 20.1 20.1 20.0 20.1 20.1 20.2 20.2 20.2 20.3 20.3 20.3 20.3 20.3 20.2 20.2 20.2 20.2 20.2 20.1 20.1 20.1 20.1 20.1 20.1 20.1 20.1 20.1 20.1 20.1 20.1 20.2 20.2 20.2 20.3 20.3 20.3 20.4 20.3 20.3 20.3 20.2 20.2 20.2 20.2 20.2 20.1 20.1 20.1 20.1 20.1 20.1 20.1 20.1 20.1 20.1 20.1 20.2 20.2 20.2 20.3 20.3 20.4 20.4 20.4 20.4 20.3 20.3 20.2 20.2 20.2 20.2 20.2 20.1 20.1 20.1 20.1 20.1 20.1 20.1 20.1 20.1 20.1 20.2 20.2 20.3 20.3 20.