<?xml version="1.0"?>
<VTKFile type="RectilinearGrid" version="1.0" byte_order="LittleEndian" header_type="UInt64">
<RectilinearGrid WholeExtent="25 50 0 25 0 15">
<Piece Extent="25 50 0 25 0 15">
<Coordinates>
<DataArray type="Float64" Name="Array X-Axis" format="ascii" RangeMin="15.0" RangeMax="30.0">
15.0 15.6 16.2 16.8 17.4 18.0 18.6 19.2 19.8 20.4 21.0 21.6 22.2 22.8 23.4 24.0 24.6 25.2 25.8 26.4 27.0 27.6 28.2 28.8 29.4 30.0 
</DataArray>
<DataArray type="Float64" Name="Array Y-Axis" format="ascii" RangeMin="0.0" RangeMax="15.0">
0.0 0.6 1.2 1.8 2.4 3.0 3.6 4.2 4.8 5.4 6.0 6.6 7.2 7.8 8.4 9.0 9.6 10.2 10.8 11.4 12.0 12.6 13.2 13.8 14.4 15.0 
</DataArray>
<DataArray type="Float64" Name="Array Z-Axis" format="ascii" RangeMin="0.0" RangeMax="9.0">
0.0 0.6 1.2 1.8 2.4 3.0 3.6 4.2 4.8 5.4 6.0 6.6 7.2 7.8 8.4 9.0 
</DataArray>
</Coordinates>
<PointData>
<DataArray Name="TEMPERATURE" NumberOfComponents="1" type="Float64" format="ascii">
20.0 20.0 20.0 20.1 20.1 20.1 20.1 20.1 20.1 20.1 20.1 20.0 20.0 20.0 20.0 20.0 20.0 20.0 20.0 20.0 20.0 20.0 20.0 20.0 20.0 20.0 20.1 20.1 20.1 20.1 20.1 20.1 20.2 20.2 20.1 20.1 20.1 20.1 20.1 20.1 20.1 20.1 20.1 20.1 20.1 20.1 20.1 20.0 20.0 20.0 20.0 20.0 20.1 20.1 20.2 20.2 20.2 20.2 20.3 20.3 20.2 20.2 20.2 20.2 20.2 20.1 20.1 20.1 20.1 20.1 20.1 20.1 20.1 20.1 20.1 20.1 20.0 20.0 20.2 20.2 20.3 20.3 20.3 20.3 20.4 20.4 20.4 20.3 20.3 20.3 20.2 20.2 20.2 20.2 20.2 20.2 20.2 20.2 20.2 20.2 20.2 20.1 20.1 20.0 20.3 20.3 20.3 20.4 20.4 20.4 20.5 20.5 20.5 20.5 20.4 20.4 20.3 20.3 20.3 20.3 20.3 20.3 20.3 20.2 20.3 20.2 20.2 20.1 20.1 20.0 20.4 20.4 20.5 20.5 20.5 20.5 20.6 20.6 20.6 20.6 20.6 20.5 20.5 20.4 20.4 20.4 20.4 20.4 20.3 20.3 20.3 20.3 20.2 20.1 20.1 20.0 20.5 20.5 20.6 20.6 20.6 20.6 20.6 20.7 20.8 20.8 20.8 20.6 20.6 20.5 20.5 20.5 20.5 20.4 20.4 20.4 20.4 20.3 20.2 20.1 20.1 20.0 20.6 20.7 20.7 20.8 20.8 20.8 20.8 20.8 20.9 20.9 20.9 20.8 20.7 20.7 20.6 20.6 20.6 20.6 20.5 20.5 20.4 20.3 20.2 20.1 20.1 20.0 20.7 20.8 20.9 20.9 21.0 21.0 21.0 21.0 21.0 21.0 21.0 20.9 20.8 20.8 20.7 20.7 20.7 20.7 20.6 20.5 20.4 20.3 20.2 20.2 20.1 20.0 20.9 20.9 21.0 21.1 21.2 21.2 21.3 21.2 21.2 21.2 21.2 21.0 21.0 20.9 20.9 20.9 20.9 20.8 20.7 20.5 20.4 20.3 20.3 20.2 20.1 20.0 21.0 21.1 21.2 21.3 21.4 21.5 21.5 21.5 21.5 21.4 21.4 21.2 21.1 21.1 21.1 21.0 21.0 20.8 20.7 20.5 20.4 20.4 20.3 20.2 20.1 20.0 21.2 21.3 21.4 21.6 21.7 21.7 21.8 21.8 21.8 21.7 21.6 21.4 21.3 21.3 21.3 21.2 21.0 20.8 20.7 20.6 20.5 20.4 20.3 20.2 20.1 20.1 21.4 21.5 21.7 21.8 21.9 22.1 22.1 22.2 22.1 22.0 21.8 21.6 21.6 21.5 21.4 21.2 21.0 20.9 20.7 20.6 20.5 20.4 20.3 20.2 20.1 20.1 21.6 21.8 21.9 22.1 22.3 22.5 22.5 22.5 22.4 22.3 22.0 21.9 21.8 21.7 21.5 21.3 21.1 20.9 20.8 20.7 20.6 20.5 20.3 20.2 20.1 20.1 21.9 22.1 22.3 22.6 22.9 23.1 23.1 22.9 22.8 22.6 22.4 22.2 22.1 21.9 21.6 21.4 21.2 21.0 20.9 20.7 20.6 20.5 20.4 20.2 20.1 20.1 22.1 22.4 22.7 23.1 23.5 23.8 23.8 23.6 23.4 23.1 22.8 22.6 22.3 22.0 21.7 21.5 21.3 21.1 20.9 20.8 20.6 20.5 20.4 20.3 20.1 20.1 22.5 22.8 23.2 23.7 24.2 24.5 24.6 24.4 24.1 23.7 23.3 22.9 22.5 22.1 21.8 21.6 21.4 21.2 21.0 20.8 20.7 20.6 20.5 20.4 20.2 20.1 23.0 23.3 23.8 24.5 25.1 25.5 25.6 25.5 25.0 24.3 23.7 23.2 22.8 22.4 22.0 21.7 21.5 21.3 21.1 21.0 20.9 20.7 20.6 20.4 20.3 20.2 23.4 23.9 24.5 25.3 26.2 26.8 27.0 26.7 26.1 25.0 24.1 23.6 23.3 22.9 22.4 22.0 21.7 21.4 21.2 21.1 21.0 20.8 20.6 20.4 20.2 20.1 24.0 24.6 25.5 27.2 29.2 30.9 31.0 29.5 27.7 25.9 24.9 24.3 23.8 23.3 22.7 22.2 21.9 21.6 21.4 21.1 20.9 20.8 20.6 20.4 20.2 20.1 25.1 25.9 27.5 31.0 33.2 34.2 34.3 34.2 31.9 27.6 25.8 24.7 23.9 23.2 22.7 22.3 22.0 21.7 21.4 21.1 20.9 20.7 20.6 20.4 20.3 20.2 26.2 27.5 29.5 33.6 36.6 20.0 20.0 41.1 37.0 30.1 26.5 25.0 24.0 23.2 22.7 22.3 22.0 21.7 21.4 21.2 20.9 20.7 20.6 20.4 20.2 20.1 26.5 28.4 30.4 34.4 37.4 20.0 20.0 38.2 35.0 29.4 26.5 25.1 23.9 23.2 22.8 22.4 22.0 21.7 21.4 21.2 20.9 20.7 20.5 20.3 20.1 20.1 25.7 27.6 29.7 32.8 34.2 34.6 34.9 32.1 29.4 26.6 25.7 24.6 23.6 23.0 22.6 22.2 21.9 21.6 21.3 21.1 20.8 20.6 20.4 20.3 20.1 20.1 24.6 25.8 27.2 28.7 30.1 32.2 33.1 30.2 26.9 25.3 24.6 23.9 23.2 22.7 22.3 22.0 21.7 21.4 21.2 21.0 20.8 20.6 20.4 20.3 20.1 20.1 23.1 24.6 25.4 26.4 27.5 28.7 29.3 27.6 25.3 24.4 23.8 23.2 22.8 22.4 22.1 21.8 21.5 21.3 21.1 20.9 20.7 20.5 20.4 20.3 20.1 20.1 20.0 20.0 20.0 20.1 20.1 20.1 20.1 20.1 20.1 20.1 20.0 20.0 20.0 20.0 20.0 20.0 20.0 20.0 20.0 20.0 20.0 20.0 20.0 20.0 20.0 20.0 20.1 20.1 20.1 20.1 20.1 20.1 20.1 20.1 20.1 20.1 20.1 20.1 20.1 20.1 20.1 20.1 20.1 20.1 20.1 20.0 20.0 20.0 20.0 20.0 20.0 20.0 20.1 20.1 20.2 20.2 20.2 20.2 20.2 20.2 20.2 20.2 20.2 20.2 20.1 20.1 20.1 20.1 20.1 20.1 20.1 20.1 20.1 20.1 20.1 20.1 20.0 20.0 20.2 20.2 20.2 20.3 20.3 20.3 20.4 20.4 20.3 20.3 20.3 20.3 20.2 20.2 20.2 20.2 20.2 20.2 20.2 20.2 20.2 20.2 20.1 20.1 20.0 20.0 20.3 20.3 20.3 20.4 20.4 20.4 20.5 20.5 20.5 20.5 20.4 20.4 20.3 20.3 20.3 20.3 20.3 20.3 20.2 20.2 20.2 20.2 20.2 20.1 20.0 20.0 20.4 20.4 20.4 20.5 20.5 20.5 20.6 20.6 20.6 20.6 20.6 20.5 20.4 20.4 20.4 20.4 20.4 20.3 20.3 20.3 20.3 20.3 20.2 20.1 20.1 20.0 20.5 20.5 20.5 20.6 20.6 20.6 20.7 20.7 20.8 20.7 20.7 20.6 20.5 20.5 20.5 20.5 20.4 20.4 20.4 20.4 20.3 20.3 20.2 20.1 20.1 20.0 20.6 20.6 20.7 20.7 20.8 20.8 20.8 20.8 20.9 20.9 20.8 20.7 20.6 20.6 20.6 20.6 20.5 20.6 20.5 20.5 20.4 20.3 20.2 20.1 20.1 20.0 20.7 20.8 20.8 20.9 21.0 21.0 21.0 21.0 21.1 21.0 21.0 20.8 20.8 20.7 20.7 20.7 20.7 20.7 20.6 20.5 20.4 20.3 20.2 20.1 20.1 20.0 20.8 20.9 21.0 21.1 21.2 21.2 21.3 21.3 21.2 21.2 21.1 21.0 20.9 20.9 20.8 20.9 20.8 20.8 20.6 20.5 20.4 20.3 20.2 20.2 20.1 20.0 21.0 21.1 21.2 21.3 21.4 21.5 21.5 21.5 21.5 21.4 21.3 21.2 21.1 21.1 21.0 21.0 20.9 20.8 20.6 20.5 20.4 20.3 20.3 20.2 20.1 20.0 21.2 21.3 21.4 21.6 21.7 21.7 21.8 21.9 21.8 21.7 21.6 21.4 21.3 21.3 21.3 21.1 21.0 20.8 20.7 20.6 20.5 20.4 20.3 20.2 20.1 20.0 21.4 21.5 21.7 21.9 22.0 22.1 22.2 22.2 22.1 22.0 21.8 21.6 21.6 21.5 21.4 21.2 21.0 20.8 20.7 20.6 20.5 20.4 20.3 20.2 20.1 20.0 21.6 21.8 22.0 22.2 22.4 22.6 22.6 22.6 22.5 22.2 22.0 21.9 21.9 21.7 21.5 21.2 21.1 20.9 20.8 20.7 20.5 20.4 20.3 20.2 20.1 20.0 21.9 22.1 22.4 22.7 23.0 23.2 23.2 23.1 22.9 22.6 22.4 22.3 22.1 21.9 21.6 21.3 21.2 21.0 20.9 20.7 20.6 20.5 20.3 20.2 20.1 20.0 22.2 22.5 22.8 23.2 23.7 24.0 24.1 23.9 23.5 23.1 22.9 22.7 22.3 22.0 21.7 21.5 21.3 21.1 20.9 20.8 20.6 20.5 20.3 20.2 20.1 20.1 22.6 22.9 23.4 23.9 24.4 24.9 25.1 24.7 24.2 23.7 23.4 23.0 22.6 22.2 21.8 21.6 21.4 21.2 21.0 20.8 20.7 20.5 20.4 20.3 20.2 20.1 23.1 23.5 24.0 24.7 25.4 26.0 26.4 25.9 25.1 24.4 23.8 23.3 22.8 22.4 22.0 21.8 21.5 21.3 21.1 20.9 20.8 20.6 20.5 20.3 20.2 20.1 23.6 24.1 25.2 26.9 27.8 28.9 30.0 28.6 26.5 25.1 24.2 23.7 23.3 22.9 22.4 22.0 21.7 21.5 21.2 21.1 20.9 20.7 20.5 20.3 20.2 20.1 24.2 24.9 26.6 30.2 33.3 37.3 40.0 35.3 29.1 26.2 25.0 24.3 23.8 23.3 22.8 22.3 21.9 21.6 21.4 21.1 20.9 20.7 20.5 20.3 20.2 20.1 25.3 26.5 29.3 36.3 52.2 97.3 124.7 76.2 38.1 30.5 26.2 24.9 24.1 23.5 22.9 22.4 22.0 21.7 21.4 21.1 20.9 20.7 20.5 20.4 20.2 20.1 26.5 28.2 32.2 40.6 87.4 276.6 313.6 115.4 46.1 34.7 27.2 25.4 24.3 23.5 22.8 22.4 22.0 21.7 21.4 21.2 20.9 20.7 20.5 20.4 20.2 20.1 27.6 29.3 32.4 40.5 100.7 287.4 270.7 91.5 42.6 31.9 26.9 25.4 24.2 23.4 22.9 22.4 22.0 21.7 21.4 21.1 20.9 20.7 20.5 20.3 20.1 20.1 26.8 28.4 31.4 39.1 66.7 104.6 91.2 52.8 34.4 27.3 25.8 24.8 23.8 23.1 22.7 22.3 21.9 21.6 21.3 21.0 20.8 20.6 20.4 20.3 20.1 20.1 24.9 26.0 28.5 32.7 36.3 37.6 35.6 31.9 28.4 25.7 24.8 24.0 23.3 22.8 22.4 22.0 21.7 21.4 21.2 20.9 20.8 20.6 20.4 20.3 20.1 20.1 23.2 24.8 25.6 27.1 29.0 29.9 29.5 27.6 25.7 24.8 24.0 23.4 22.9 22.5 22.1 21.8 21.6 21.3 21.1 20.9 20.7 20.5 20.4 20.2 20.1 20.1 20.0 20.0 20.0 20.1 20.1 20.0 20.1 20.1 20.0 20.0 20.0 20.0 20.0 20.0 20.0 20.0 20.0 20.0 20.0 20.0 20.0 20.0 20.0 20.0 20.0 20.0 20.1 20.1 20.1 20.1 20.1 20.1 20.1 20.1 20.1 20.1 20.1 20.1 20.1 20.1 20.1 20.1 20.0 20.0 20.0 20.0 20.0 20.0 20.0 20.0 20.0 20.0 20.1 20.1 20.1 20.2 20.2 20.2 20.2 20.2 20.2 20.2 20.2 20.1 20.1 20.1 20.1 20.1 20.1 20.1 20.1 20.1 20.1 20.1 20.1 20.1 20.0 20.0 20.2 20.2 20.2 20.2 20.3 20.3 20.3 20.3 20.3 20.3 20.3 20.2 20.2 20.2 20.2 20.2 20.2 20.2 20.1 20.1 20.1 20.1 20.1 20.1 20.0 20.0 20.3 20.3 20.3 20.3 20.4 20.4 20.4 20.5 20.4 20.4 20.4 20.3 20.3 20.3 20.3 20.2 20.2 20.2 20.2 20.2 20.2 20.2 20.1 20.1 20.0 20.0 20.4 20.4 20.4 20.5 20.5 20.5 20.5 20.6 20.6 20.5 20.5 20.4 20.4 20.3 20.3 20.3 20.3 20.3 20.3 20.3 20.3 20.2 20.1 20.1 20.0 20.0 20.5 20.5 20.5 20.6 20.6 20.6 20.7 20.7 20.7 20.7 20.6 20.5 20.5 20.4 20.4 20.4 20.4 20.4 20.4 20.4 20.3 20.2 20.1 20.1 20.0 20.0 20.6 20.6 20.7 20.7 20.8 20.8 20.8 20.9 20.9 20.8 20.7 20.6 20.6 20.6 20.5 20.5 20.5 20.5 20.5 20.4 20.3 20.2 20.2 20.1 20.1 20.0 20.7 20.7 20.8 20.9 21.0 21.0 21.0 21.0 21.1 21.0 20.9 20.8 20.7 20.7 20.6 20.6 20.7 20.7 20.6 20.4 20.3 20.2 20.2 20.1 20.1 20.0 20.8 20.9 21.0 21.1 21.2 21.2 21.3 21.3 21.3 21.2 21.0 20.9 20.9 20.8 20.8 20.8 20.8 20.7 20.6 20.4 20.3 20.3 20.2 20.1 20.1 20.0 21.0 21.1 21.2 21.3 21.4 21.5 21.5 21.5 21.5 21.4 21.2 21.1 21.0 21.0 21.0 21.0 20.9 20.7 20.6 20.5 20.4 20.3 20.2 20.1 20.1 20.0 21.2 21.3 21.4 21.6 21.8 21.8 21.9 21.9 21.8 21.6 21.4 21.3 21.3 21.3 21.2 21.1 20.9 20.7 20.6 20.5 20.4 20.3 20.2 20.2 20.1 20.0 21.4 21.5 21.7 21.9 22.1 22.3 22.3 22.3 22.1 21.9 21.7 21.6 21.6 21.5 21.4 21.1 20.9 20.8 20.6 20.5 20.4 20.3 20.3 20.2 20.1 20.0 21.6 21.8 22.1 22.3 22.6 22.8 22.8 22.7 22.5 22.2 22.1 22.0 21.9 21.7 21.4 21.2 21.0 20.8 20.7 20.6 20.5 20.4 20.3 20.2 20.1 20.0 21.9 22.2 22.4 22.8 23.2 23.4 23.6 23.3 22.9 22.7 22.5 22.4 22.2 21.8 21.5 21.3 21.1 20.9 20.8 20.7 20.5 20.4 20.3 20.2 20.1 20.0 22.3 22.6 23.0 23.5 23.9 24.4 24.6 24.3 23.6 23.2 23.0 22.7 22.4 22.0 21.7 21.4 21.2 21.0 20.9 20.7 20.6 20.4 20.3 20.2 20.1 20.0 22.7 23.1 23.7 24.3 25.0 25.8 26.1 25.3 24.4 23.9 23.5 23.1 22.6 22.2 21.8 21.6 21.3 21.1 20.9 20.8 20.6 20.5 20.3 20.2 20.1 20.0 23.3 23.8 24.4 25.9 27.2 28.4 29.0 27.3 25.5 24.7 24.1 23.5 22.9 22.4 22.1 21.8 21.5 21.3 21.0 20.9 20.7 20.5 20.4 20.2 20.1 20.1 24.0 24.9 26.6 32.5 35.8 41.6 48.5 39.3 28.5 25.6 24.6 23.9 23.3 22.8 22.4 22.1 21.7 21.4 21.2 21.0 20.8 20.6 20.4 20.3 20.1 20.1 24.8 26.2 31.0 49.3 62.7 78.2 105.1 84.5 42.1 28.2 25.4 24.5 23.9 23.4 22.9 22.4 22.0 21.6 21.4 21.1 20.8 20.6 20.4 20.3 20.1 20.1 26.3 28.6 36.9 69.5 122.4 183.9 231.5 177.9 86.7 45.5 27.3 25.4 24.6 23.9 23.2 22.6 22.1 21.8 21.4 21.2 20.9 20.6 20.4 20.3 20.2 20.1 27.7 31.2 42.5 80.8 185.4 327.8 353.4 225.1 106.8 52.7 28.8 26.2 25.0 24.1 23.2 22.6 22.1 21.8 21.5 21.2 20.9 20.7 20.5 20.3 20.2 20.1 28.8 33.1 42.6 74.3 189.9 332.7 328.2 198.5 86.3 37.9 28.3 26.3 24.9 23.9 23.2 22.6 22.1 21.8 21.4 21.1 20.9 20.6 20.5 20.3 20.1 20.1 27.8 31.1 36.7 56.1 118.2 173.1 165.2 115.4 56.6 29.2 26.9 25.5 24.3 23.5 22.9 22.4 22.0 21.6 21.3 21.0 20.8 20.6 20.4 20.3 20.1 20.1 25.5 26.8 29.9 37.9 48.9 53.4 48.0 38.7 30.5 26.6 25.5 24.5 23.7 23.0 22.5 22.1 21.8 21.5 21.2 21.0 20.8 20.6 20.4 20.3 20.1 20.1 23.5 25.2 26.1 27.9 30.7 32.3 31.5 28.9 26.5 25.4 24.5 23.8 23.2 22.6 22.2 21.8 21.5 21.3 21.1 20.9 20.7 20.5 20.4 20.2 20.1 20.1 20.0 20.0 20.0 20.0 20.1 20.1 20.1 20.0 20.0 20.0 20.0 20.0 20.0 20.0 20.0 20.0 20.0 20.0 20.0 20.0 20.0 20.0 20.0 20.0 20.0 20.0 20.1 20.1 20.1 20.1 20.1 20.1 20.1 20.1 20.1 20.1 20.1 20.1 20.1 20.1 20.1 20.0 20.0 20.0 20.0 20.0 20.0 20.0 20.0 20.0 20.0 20.0 20.1 20.1 20.2 20.2 20.2 20.2 20.2 20.2 20.2 20.2 20.2 20.1 20.1 20.1 20.1 20.1 20.1 20.1 20.1 20.1 20.1 20.1 20.1 20.1 20.0 20.0 20.2 20.2 20.2 20.3 20.3 20.3 20.3 20.3 20.3 20.3 20.2 20.2 20.2 20.2 20.2 20.2 20.2 20.1 20.1 20.1 20.1 20.1 20.1 20.1 20.0 20.0 20.3 20.3 20.3 20.4 20.4 20.4 20.4 20.4 20.4 20.4 20.3 20.3 20.3 20.3 20.3 20.2 20.2 20.2 20.2 20.2 20.2 20.2 20.1 20.1 20.0 20.0 20.4 20.4 20.4 20.5 20.5 20.5 20.5 20.6 20.6 20.5 20.4 20.4 20.4 20.4 20.3 20.3 20.3 20.3 20.3 20.3 20.2 20.2 20.1 20.1 20.0 20.0 20.5 20.5 20.6 20.6 20.6 20.6 20.7 20.7 20.7 20.7 20.6 20.5 20.5 20.4 20.4 20.4 20.4 20.4 20.4 20.4 20.3 20.2 20.1 20.1 20.0 20.0 20.6 20.6 20.7 20.8 20.8 20.8 20.8 20.9 20.9 20.8 20.7 20.6 20.6 20.6 20.5 20.5 20.5 20.5 20.5 20.4 20.3 20.2 20.1 20.1 20.0 20.0 20.7 20.8 20.9 21.0 21.0 21.0 21.1 21.1 21.0 21.0 20.8 20.8 20.7 20.7 20.6 20.6 20.7 20.6 20.5 20.4 20.3 20.2 20.2 20.1 20.0 20.0 20.9 21.0 21.1 21.2 21.3 21.3 21.3 21.3 21.3 21.1 21.0 20.9 20.9 20.8 20.8 20.8 20.8 20.7 20.5 20.4 20.3 20.2 20.2 20.1 20.1 20.0 21.0 21.1 21.3 21.4 21.5 21.6 21.6 21.6 21.5 21.3 21.2 21.1 21.0 21.0 21.0 21.0 20.9 20.7 20.5 20.4 20.3 20.3 20.2 20.1 20.1 20.0 21.2 21.4 21.5 21.7 21.9 21.9 21.9 21.9 21.8 21.6 21.4 21.3 21.3 21.3 21.2 21.1 20.9 20.7 20.6 20.5 20.4 20.3 20.2 20.1 20.1 20.0 21.4 21.6 21.8 22.0 22.2 22.3 22.4 22.3 22.1 21.8 21.7 21.6 21.6 21.5 21.3 21.1 20.9 20.7 20.6 20.5 20.4 20.3 20.2 20.1 20.1 20.0 21.7 21.9 22.2 22.5 22.7 22.8 22.9 22.8 22.5 22.2 22.1 22.0 21.9 21.7 21.4 21.2 21.0 20.8 20.7 20.6 20.5 20.4 20.3 20.2 20.1 20.0 22.0 22.3 22.6 22.9 23.3 23.6 23.7 23.5 23.0 22.7 22.6 22.4 22.2 21.8 21.5 21.3 21.1 20.9 20.8 20.6 20.5 20.4 20.3 20.2 20.1 20.0 22.4 22.8 23.1 23.6 24.1 24.5 24.8 24.4 23.7 23.4 23.2 22.8 22.4 22.0 21.7 21.4 21.2 21.1 20.9 20.7 20.6 20.4 20.3 20.2 20.1 20.0 22.9 23.3 24.0 24.7 25.7 27.2 27.2 25.8 24.7 24.1 23.7 23.2 22.7 22.2 21.9 21.6 21.4 21.1 20.9 20.8 20.6 20.5 20.3 20.2 20.1 20.0 23.5 24.3 26.1 27.8 28.6 30.9 31.8 28.6 25.9 25.1 24.3 23.6 23.0 22.5 22.1 21.8 21.5 21.2 21.0 20.8 20.7 20.5 20.3 20.2 20.1 20.1 24.7 27.4 32.5 37.7 39.4 48.5 57.5 45.6 31.1 26.7 25.0 24.1 23.4 22.9 22.4 22.0 21.7 21.4 21.2 20.9 20.7 20.5 20.4 20.2 20.1 20.1 28.9 32.8 43.4 65.0 82.1 120.8 166.9 141.2 75.7 36.7 26.1 24.7 23.9 23.4 22.9 22.4 22.0 21.6 21.3 21.1 20.8 20.6 20.4 20.2 20.1 20.1 33.8 38.5 56.9 115.6 187.1 263.4 326.6 294.5 180.8 73.5 29.5 25.8 24.8 24.0 23.3 22.7 22.2 21.8 21.5 21.2 20.9 20.7 20.4 20.2 20.1 20.1 35.9 46.3 79.0 165.9 288.6 389.5 421.3 352.4 206.5 78.5 31.4 27.0 25.6 24.5 23.6 22.9 22.4 21.9 21.5 21.2 21.0 20.7 20.5 20.3 20.1 20.1 34.1 50.4 85.9 158.6 278.9 382.6 404.8 308.1 139.9 44.9 30.0 27.3 25.5 24.4 23.6 22.9 22.4 21.9 21.5 21.2 20.9 20.7 20.5 20.3 20.2 20.1 29.1 41.6 59.5 91.6 159.6 219.2 233.2 173.3 74.9 31.6 28.1 26.4 24.8 23.8 23.2 22.6 22.2 21.8 21.4 21.1 20.9 20.6 20.5 20.3 20.1 20.1 26.0 30.4 34.4 40.5 57.1 70.6 69.5 51.0 32.5 27.6 26.1 25.0 24.0 23.2 22.7 22.2 21.9 21.6 21.3 21.0 20.8 20.6 20.4 20.3 20.1 20.1 23.8 25.9 26.9 28.3 31.2 34.6 35.6 31.8 27.3 25.8 24.9 24.1 23.4 22.8 22.4 22.0 21.6 21.3 21.1 20.9 20.7 20.5 20.4 20.2 20.1 20.1 20.0 20.0 20.0 20.1 20.1 20.0 20.0 20.0 20.0 20.0 20.0 20.0 20.0 20.0 20.0 20.0 20.0 20.0 20.0 20.0 20.0 20.0 20.0 20.0 20.0 20.0 20.1 20.1 20.1 20.1 20.1 20.1 20.1 20.1 20.1 20.1 20.1 20.1 20.1 20.1 20.1 20.1 20.1 20.0 20.0 20.0 20.0 20.0 20.0 20.0 20.0 20.0 20.2 20.2 20.2 20.2 20.2 20.2 20.2 20.2 20.2 20.2 20.2 20.1 20.1 20.1 20.1 20.1 20.1 20.1 20.1 20.1 20.1 20.1 20.1 20.1 20.0 20.0 20.2 20.3 20.3 20.3 20.3 20.3 20.3 20.3 20.3 20.3 20.3 20.2 20.2 20.2 20.2 20.2 20.2 20.2 20.2 20.1 20.1 20.1 20.1 20.1 20.0 20.0 20.3 20.4 20.4 20.4 20.4 20.4 20.4 20.4 20.5 20.4 20.4 20.3 20.3 20.3 20.3 20.3 20.3 20.2 20.2 20.2 20.2 20.2 20.1 20.1 20.0 20.0 20.4 20.5 20.5 20.6 20.6 20.6 20.6 20.6 20.6 20.6 20.5 20.4 20.4 20.4 20.4 20.4 20.3 20.3 20.3 20.3 20.3 20.2 20.1 20.1 20.0 20.0 20.5 20.6 20.7 20.7 20.7 20.7 20.7 20.8 20.7 20.7 20.6 20.5 20.5 20.5 20.5 20.4 20.4 20.4 20.4 20.4 20.3 20.2 20.2 20.1 20.0 20.0 20.7 20.7 20.8 20.9 20.9 20.9 20.9 20.9 20.9 20.8 20.7 20.7 20.6 20.6 20.6 20.6 20.6 20.5 20.5 20.4 20.3 20.2 20.2 20.1 20.0 20.0 20.8 20.9 21.0 21.1 21.1 21.1 21.1 21.1 21.1 21.0 20.9 20.8 20.8 20.8 20.7 20.7 20.7 20.6 20.6 20.4 20.3 20.2 20.2 20.1 20.0 20.0 21.0 21.1 21.2 21.3 21.3 21.3 21.3 21.3 21.3 21.2 21.0 21.0 21.0 20.9 20.9 20.9 20.8 20.7 20.6 20.5 20.4 20.3 20.2 20.1 20.1 20.0 21.1 21.3 21.4 21.5 21.6 21.6 21.6 21.6 21.5 21.4 21.2 21.2 21.1 21.1 21.1 21.0 20.9 20.7 20.6 20.5 20.4 20.3 20.2 20.1 20.1 20.0 21.3 21.5 21.6 21.8 21.9 21.9 22.0 22.0 21.8 21.6 21.5 21.4 21.4 21.3 21.3 21.1 20.9 20.8 20.6 20.5 20.4 20.3 20.2 20.1 20.1 20.0 21.5 21.7 21.9 22.1 22.2 22.3 22.4 22.4 22.2 21.9 21.7 21.7 21.7 21.6 21.4 21.2 21.0 20.8 20.7 20.6 20.5 20.4 20.3 20.2 20.1 20.0 21.8 22.0 22.3 22.5 22.7 22.8 22.9 22.8 22.6 22.3 22.1 22.0 22.0 21.7 21.5 21.3 21.1 20.9 20.8 20.6 20.5 20.4 20.3 20.2 20.1 20.0 22.1 22.4 22.7 23.0 23.3 23.5 23.6 23.5 23.1 22.8 22.6 22.5 22.2 21.9 21.6 21.4 21.2 21.0 20.9 20.7 20.6 20.4 20.3 20.2 20.1 20.0 22.5 22.9 23.3 23.6 24.0 24.4 24.6 24.3 23.7 23.4 23.2 22.8 22.5 22.1 21.8 21.6 21.4 21.2 21.0 20.8 20.6 20.4 20.3 20.2 20.1 20.0 23.0 23.6 24.4 25.0 26.1 27.5 27.3 25.7 24.6 24.2 23.8 23.2 22.7 22.3 22.0 21.8 21.5 21.2 21.0 20.8 20.6 20.5 20.3 20.2 20.1 20.1 23.7 25.3 27.6 28.3 27.6 29.6 31.2 28.3 25.9 25.2 24.4 23.7 23.1 22.6 22.2 21.9 21.6 21.3 21.1 20.9 20.7 20.5 20.4 20.2 20.1 20.1 25.4 30.7 36.8 36.4 31.8 37.0 44.6 39.2 30.9 26.9 25.1 24.2 23.4 22.9 22.5 22.1 21.7 21.4 21.2 21.0 20.8 20.6 20.4 20.3 20.1 20.1 34.0 44.3 56.0 64.4 60.0 91.0 129.5 128.8 88.2 37.9 26.4 24.8 24.0 23.3 22.8 22.4 22.0 21.6 21.4 21.1 20.9 20.6 20.4 20.3 20.1 20.1 41.6 56.9 90.6 145.6 147.0 212.9 308.2 306.8 206.6 70.2 29.7 26.0 24.9 23.9 23.3 22.7 22.3 21.9 21.5 21.2 20.9 20.7 20.5 20.3 20.1 20.1 44.9 79.5 150.0 241.6 236.6 306.9 428.6 382.8 223.5 72.6 31.7 27.4 25.7 24.6 23.8 23.1 22.5 22.0 21.6 21.2 21.0 20.7 20.5 20.3 20.2 20.1 42.0 90.9 168.9 239.3 227.8 291.0 396.9 305.5 134.6 43.5 30.3 27.7 25.9 24.6 23.8 23.1 22.5 22.0 21.6 21.3 21.0 20.7 20.5 20.3 20.2 20.1 31.6 66.1 107.4 132.2 138.9 184.1 235.6 166.9 66.9 31.9 28.1 26.7 25.3 24.1 23.4 22.8 22.4 21.9 21.5 21.2 20.9 20.7 20.5 20.3 20.2 20.1 26.4 39.5 49.0 50.1 62.4 78.2 86.5 63.9 34.8 27.9 26.1 25.2 24.3 23.5 22.9 22.5 22.1 21.7 21.4 21.1 20.9 20.7 20.5 20.3 20.1 20.1 24.0 27.7 30.2 32.0 35.0 38.6 43.4 38.3 28.7 26.1 25.0 24.4 23.7 23.1 22.6 22.2 21.8 21.5 21.2 21.0 20.8 20.6 20.4 20.3 20.1 20.1 20.0 20.1 20.1 20.1 20.1 20.0 20.0 20.0 20.0 20.0 20.0 20.0 20.0 20.0 20.0 20.0 20.0 20.0 20.0 20.0 20.0 20.0 20.0 20.0 20.0 20.0 20.1 20.1 20.1 20.1 20.1 20.1 20.1 20.1 20.1 20.1 20.1 20.1 20.1 20.1 20.1 20.1 20.1 20.1 20.1 20.1 20.1 20.0 20.0 20.0 20.0 20.0 20.2 20.2 20.2 20.2 20.2 20.2 20.2 20.2 20.2 20.2 20.2 20.2 20.1 20.1 20.1 20.1 20.1 20.1 20.1 20.1 20.1 20.1 20.1 20.1 20.0 20.0 20.3 20.3 20.3 20.3 20.4 20.3 20.3 20.3 20.3 20.3 20.3 20.3 20.2 20.2 20.2 20.2 20.2 20.2 20.2 20.2 20.2 20.2 20.1 20.1 20.0 20.0 20.3 20.4 20.5 20.5 20.5 20.4 20.4 20.5 20.5 20.5 20.4 20.4 20.3 20.3 20.3 20.3 20.3 20.3 20.3 20.3 20.2 20.2 20.2 20.1 20.0 20.0 20.5 20.5 20.6 20.6 20.6 20.6 20.6 20.6 20.6 20.6 20.5 20.5 20.5 20.5 20.4 20.4 20.4 20.4 20.4 20.4 20.3 20.2 20.2 20.1 20.0 20.0 20.6 20.7 20.7 20.8 20.8 20.8 20.8 20.8 20.8 20.7 20.7 20.6 20.6 20.6 20.5 20.5 20.5 20.5 20.5 20.4 20.4 20.3 20.2 20.1 20.0 20.0 20.7 20.8 20.9 20.9 20.9 20.9 20.9 21.0 21.0 20.9 20.8 20.8 20.7 20.7 20.7 20.7 20.6 20.6 20.6 20.5 20.4 20.3 20.2 20.1 20.1 20.0 20.9 21.0 21.0 21.1 21.1 21.1 21.2 21.2 21.1 21.1 21.0 20.9 20.9 20.9 20.8 20.8 20.7 20.7 20.6 20.5 20.4 20.3 20.2 20.1 20.1 20.0 21.0 21.1 21.2 21.3 21.4 21.4 21.4 21.4 21.4 21.3 21.1 21.1 21.0 21.0 21.0 20.9 20.9 20.7 20.6 20.5 20.4 20.3 20.2 20.1 20.1 20.0 21.2 21.3 21.5 21.6 21.6 21.6 21.7 21.7 21.6 21.5 21.3 21.3 21.3 21.2 21.1 21.1 20.9 20.8 20.7 20.6 20.5 20.3 20.2 20.2 20.1 20.0 21.4 21.6 21.7 21.8 21.9 21.9 22.0 22.0 21.9 21.7 21.6 21.5 21.5 21.4 21.3 21.2 21.0 20.9 20.8 20.6 20.5 20.4 20.3 20.2 20.1 20.0 21.6 21.8 22.0 22.1 22.3 22.3 22.4 22.4 22.2 22.0 21.9 21.8 21.7 21.6 21.4 21.3 21.1 21.0 20.8 20.7 20.5 20.4 20.3 20.2 20.1 20.0 21.9 22.1 22.4 22.5 22.7 22.8 22.9 22.9 22.6 22.4 22.2 22.1 22.0 21.8 21.6 21.4 21.2 21.1 20.9 20.7 20.6 20.4 20.3 20.2 20.1 20.0 22.2 22.5 22.8 23.0 23.2 23.3 23.5 23.5 23.1 22.9 22.7 22.5 22.3 22.0 21.7 21.5 21.4 21.2 21.0 20.8 20.6 20.5 20.3 20.2 20.1 20.0 22.7 23.2 23.5 23.6 23.9 24.1 24.3 24.2 23.7 23.5 23.2 22.9 22.5 22.2 21.9 21.7 21.5 21.3 21.1 20.9 20.7 20.5 20.3 20.2 20.1 20.1 23.2 24.1 24.7 25.2 26.1 26.7 26.3 25.2 24.6 24.2 23.8 23.3 22.9 22.5 22.2 21.9 21.6 21.3 21.1 20.9 20.7 20.5 20.4 20.2 20.1 20.1 24.7 26.6 27.6 26.6 26.4 28.4 28.9 26.9 25.6 25.1 24.4 23.8 23.3 22.7 22.4 22.0 21.7 21.4 21.2 20.9 20.7 20.6 20.4 20.3 20.1 20.1 27.8 33.4 35.2 30.6 27.0 31.5 35.4 34.1 30.3 26.4 25.2 24.3 23.6 23.0 22.6 22.2 21.9 21.5 21.3 21.0 20.8 20.6 20.5 20.3 20.1 20.1 40.0 54.2 60.5 52.1 39.7 52.2 70.7 92.9 75.5 32.5 26.4 25.0 24.1 23.3 22.8 22.4 22.1 21.7 21.4 21.2 20.9 20.7 20.5 20.3 20.2 20.1 59.1 88.9 121.4 118.2 94.4 149.7 215.8 247.4 168.4 47.5 28.4 26.1 24.9 23.9 23.3 22.8 22.4 21.9 21.5 21.2 20.9 20.7 20.5 20.3 20.2 20.1 79.2 141.9 212.8 198.5 160.0 263.1 366.7 333.7 180.9 50.0 30.2 27.4 25.8 24.6 23.8 23.1 22.5 22.0 21.6 21.2 20.9 20.7 20.5 20.3 20.2 20.1 76.6 158.6 236.2 200.9 162.2 266.5 348.0 258.7 110.3 38.3 29.9 27.8 26.2 24.8 23.8 23.1 22.5 22.0 21.6 21.3 21.0 20.7 20.5 20.3 20.2 20.1 46.7 105.0 151.5 129.7 119.3 175.5 212.1 146.2 61.4 31.9 27.8 26.7 25.6 24.4 23.6 22.9 22.4 21.9 21.6 21.3 21.0 20.8 20.6 20.3 20.2 20.1 28.3 52.2 69.3 70.3 74.8 85.1 102.0 78.5 40.0 28.8 26.2 25.4 24.6 23.8 23.2 22.6 22.1 21.8 21.5 21.2 21.0 20.8 20.5 20.3 20.2 20.1 24.2 30.6 36.3 41.8 43.7 44.9 56.1 49.9 32.1 26.8 25.4 24.6 23.9 23.3 22.8 22.3 21.9 21.6 21.3 21.1 20.9 20.7 20.5 20.3 20.1 20.1 20.0 20.1 20.1 20.1 20.1 20.1 20.0 20.0 20.1 20.1 20.0 20.0 20.0 20.0 20.0 20.0 20.0 20.0 20.0 20.0 20.0 20.0 20.0 20.0 20.0 20.0 20.1 20.1 20.1 20.1 20.1 20.1 20.1 20.1 20.1 20.1 20.1 20.1 20.1 20.1 20.1 20.1 20.1 20.1 20.1 20.1 20.1 20.1 20.1 20.1 20.0 20.0 20.2 20.2 20.2 20.2 20.2 20.2 20.2 20.2 20.2 20.2 20.2 20.2 20.1 20.1 20.1 20.1 20.1 20.1 20.1 20.1 20.2 20.1 20.1 20.1 20.0 20.0 20.3 20.3 20.3 20.3 20.3 20.3 20.3 20.3 20.3 20.3 20.3 20.3 20.3 20.3 20.2 20.2 20.2 20.2 20.2 20.2 20.2 20.2 20.2 20.1 20.1 20.0 20.4 20.4 20.4 20.5 20.5 20.4 20.5 20.5 20.5 20.5 20.4 20.4 20.4 20.4 20.4 20.4 20.3 20.3 20.3 20.3 20.3 20.3 20.2 20.1 20.1 20.0 20.5 20.5 20.6 20.6 20.6 20.6 20.6 20.7 20.7 20.6 20.6 20.5 20.5 20.5 20.5 20.5 20.5 20.5 20.5 20.4 20.4 20.3 20.2 20.1 20.1 20.0 20.6 20.7 20.7 20.8 20.8 20.8 20.8 20.8 20.8 20.8 20.7 20.7 20.7 20.6 20.6 20.6 20.6 20.6 20.6 20.5 20.4 20.3 20.2 20.1 20.1 20.0 20.8 20.8 20.9 20.9 20.9 20.9 21.0 21.0 21.0 21.0 20.9 20.8 20.8 20.8 20.8 20.7 20.7 20.7 20.6 20.5 20.4 20.3 20.2 20.1 20.1 20.0 20.9 21.0 21.1 21.1 21.1 21.1 21.2 21.2 21.2 21.2 21.0 21.0 21.0 20.9 20.9 20.9 20.8 20.8 20.7 20.6 20.5 20.3 20.2 20.1 20.1 20.0 21.1 21.2 21.3 21.3 21.4 21.4 21.4 21.4 21.4 21.3 21.2 21.1 21.1 21.1 21.1 21.0 20.9 20.8 20.7 20.6 20.5 20.3 20.2 20.1 20.1 20.0 21.2 21.4 21.5 21.6 21.6 21.6 21.7 21.7 21.7 21.6 21.5 21.4 21.4 21.3 21.2 21.1 21.0 20.9 20.8 20.6 20.5 20.4 20.3 20.2 20.1 20.0 21.4 21.6 21.7 21.8 21.9 21.9 22.0 22.0 21.9 21.8 21.7 21.6 21.6 21.5 21.3 21.2 21.1 21.0 20.8 20.7 20.5 20.4 20.3 20.2 20.1 20.0 21.7 21.9 22.0 22.1 22.2 22.3 22.4 22.4 22.3 22.2 22.0 21.9 21.8 21.7 21.5 21.4 21.2 21.1 20.9 20.7 20.6 20.4 20.3 20.2 20.1 20.0 21.9 22.2 22.3 22.5 22.6 22.7 22.9 22.9 22.7 22.5 22.4 22.2 22.0 21.8 21.7 21.5 21.3 21.2 21.0 20.8 20.6 20.5 20.3 20.2 20.1 20.0 22.3 22.5 22.7 22.9 23.1 23.3 23.5 23.4 23.1 22.9 22.8 22.5 22.3 22.1 21.9 21.7 21.5 21.2 21.0 20.8 20.7 20.5 20.3 20.2 20.1 20.1 22.9 23.3 23.5 23.6 23.8 24.0 24.1 24.0 23.7 23.5 23.2 22.9 22.6 22.3 22.1 21.8 21.6 21.3 21.1 20.9 20.7 20.5 20.3 20.2 20.1 20.1 23.6 24.5 25.0 25.1 25.4 25.8 25.6 25.0 24.6 24.2 23.7 23.3 22.9 22.5 22.2 22.0 21.7 21.4 21.1 20.9 20.7 20.5 20.4 20.2 20.1 20.1 25.7 27.1 26.4 25.4 26.9 28.2 27.4 26.3 25.7 25.0 24.4 23.8 23.3 22.8 22.4 22.1 21.8 21.5 21.2 21.0 20.8 20.6 20.4 20.3 20.1 20.1 35.6 35.7 31.1 26.8 30.0 32.6 30.7 31.2 29.9 26.4 25.1 24.4 23.7 23.1 22.7 22.3 22.0 21.6 21.3 21.1 20.9 20.7 20.5 20.3 20.1 20.1 60.0 63.8 51.5 35.4 38.5 45.0 46.1 64.8 58.5 31.7 26.3 24.9 24.1 23.4 22.9 22.5 22.2 21.8 21.5 21.2 20.9 20.7 20.5 20.3 20.2 20.1 93.1 120.0 103.2 60.2 76.7 113.9 129.9 172.9 127.2 41.6 28.4 25.9 24.8 24.0 23.4 22.8 22.4 22.0 21.6 21.2 21.0 20.7 20.5 20.3 20.2 20.1 136.6 199.6 177.8 111.0 163.6 244.6 267.1 262.7 150.2 44.6 30.1 27.1 25.7 24.6 23.8 23.1 22.5 22.0 21.6 21.2 20.9 20.7 20.5 20.3 20.2 20.1 149.2 222.0 196.7 138.3 217.8 299.5 287.1 222.4 110.1 39.7 29.6 27.4 26.0 24.8 23.8 23.0 22.4 21.9 21.5 21.2 21.0 20.7 20.5 20.3 20.1 20.1 92.5 150.2 151.4 126.4 167.4 203.9 184.6 129.8 70.2 35.3 27.8 26.4 25.5 24.5 23.6 22.9 22.3 21.9 21.5 21.2 21.0 20.8 20.5 20.3 20.1 20.1 38.5 71.1 90.9 90.6 87.2 92.9 107.2 82.7 46.2 31.0 26.4 25.3 24.6 23.9 23.2 22.6 22.1 21.7 21.5 21.2 21.0 20.8 20.6 20.3 20.2 20.1 25.0 33.8 41.8 46.8 45.6 47.4 62.5 56.3 35.3 27.5 25.6 24.7 24.0 23.4 22.8 22.3 21.9 21.6 21.3 21.1 20.9 20.7 20.5 20.3 20.2 20.1 20.0 20.0 20.1 20.1 20.1 20.1 20.0 20.0 20.1 20.0 20.0 20.0 20.0 20.0 20.0 20.0 20.0 20.0 20.0 20.0 20.0 20.0 20.0 20.0 20.0 20.0 20.1 20.1 20.1 20.1 20.1 20.1 20.1 20.1 20.1 20.1 20.1 20.1 20.1 20.1 20.1 20.1 20.1 20.1 20.1 20.1 20.1 20.1 20.1 20.1 20.0 20.0 20.2 20.2 20.2 20.2 20.2 20.2 20.2 20.2 20.2 20.2 20.2 20.2 20.2 20.2 20.2 20.2 20.2 20.1 20.1 20.1 20.2 20.2 20.1 20.1 20.1 20.0 20.3 20.3 20.3 20.3 20.3 20.3 20.3 20.3 20.3 20.3 20.3 20.3 20.3 20.3 20.3 20.3 20.3 20.2 20.2 20.2 20.3 20.2 20.2 20.1 20.1 20.0 20.4 20.4 20.4 20.5 20.5 20.4 20.4 20.5 20.5 20.5 20.5 20.4 20.4 20.4 20.4 20.4 20.4 20.4 20.4 20.4 20.3 20.3 20.2 20.1 20.1 20.0 20.5 20.5 20.6 20.6 20.6 20.6 20.6 20.6 20.7 20.7 20.6 20.6 20.5 20.5 20.5 20.5 20.5 20.5 20.5 20.5 20.4 20.4 20.3 20.2 20.1 20.0 20.6 20.7 20.7 20.8 20.8 20.7 20.8 20.8 20.8 20.8 20.8 20.7 20.7 20.7 20.7 20.7 20.6 20.6 20.6 20.5 20.5 20.4 20.3 20.2 20.1 20.0 20.8 20.9 20.9 20.9 20.9 20.9 21.0 21.0 21.0 21.0 21.0 20.9 20.9 20.9 20.8 20.8 20.8 20.7 20.7 20.6 20.5 20.4 20.2 20.1 20.1 20.0 20.9 21.0 21.1 21.2 21.1 21.1 21.1 21.2 21.2 21.2 21.1 21.1 21.0 21.0 21.0 20.9 20.9 20.8 20.7 20.6 20.5 20.4 20.2 20.1 20.1 20.0 21.1 21.2 21.3 21.4 21.4 21.3 21.4 21.4 21.4 21.4 21.3 21.2 21.2 21.2 21.1 21.1 21.0 20.9 20.8 20.6 20.5 20.4 20.3 20.2 20.1 20.0 21.2 21.4 21.5 21.6 21.6 21.6 21.7 21.7 21.7 21.7 21.6 21.5 21.4 21.4 21.3 21.2 21.1 21.0 20.8 20.7 20.5 20.4 20.3 20.2 20.1 20.0 21.5 21.6 21.7 21.8 21.9 21.9 22.0 22.1 22.0 22.0 21.9 21.7 21.6 21.5 21.4 21.3 21.2 21.1 20.9 20.7 20.6 20.4 20.3 20.2 20.1 20.0 21.8 21.9 22.0 22.1 22.2 22.3 22.4 22.4 22.4 22.3 22.2 22.0 21.9 21.7 21.6 21.4 21.3 21.1 20.9 20.8 20.6 20.5 20.3 20.2 20.1 20.0 22.1 22.3 22.4 22.5 22.6 22.7 22.8 22.9 22.8 22.7 22.5 22.3 22.1 21.9 21.8 21.6 21.4 21.2 21.0 20.8 20.6 20.5 20.3 20.2 20.1 20.0 22.5 22.7 22.7 22.9 23.0 23.2 23.3 23.4 23.2 23.0 22.8 22.6 22.3 22.2 22.0 21.8 21.5 21.3 21.0 20.8 20.7 20.5 20.3 20.2 20.1 20.0 23.0 23.5 23.5 23.4 23.6 23.8 24.0 24.0 23.8 23.5 23.2 22.9 22.7 22.5 22.2 21.9 21.6 21.3 21.1 20.9 20.7 20.5 20.3 20.2 20.1 20.1 24.1 24.9 25.1 24.9 24.6 24.7 25.0 24.8 24.5 24.1 23.7 23.4 23.1 22.8 22.4 22.1 21.7 21.4 21.1 20.9 20.7 20.5 20.4 20.2 20.1 20.1 26.1 27.5 26.4 25.9 26.5 26.0 26.0 26.0 25.6 24.9 24.3 23.9 23.5 23.1 22.7 22.2 21.8 21.5 21.2 20.9 20.7 20.6 20.4 20.3 20.1 20.1 40.3 35.9 29.7 28.4 31.6 30.0 28.4 28.9 28.3 26.2 25.1 24.4 23.9 23.4 22.9 22.4 22.0 21.6 21.3 21.0 20.8 20.6 20.5 20.3 20.1 20.1 77.5 65.2 44.7 38.1 42.1 38.0 36.5 42.9 40.5 30.1 26.2 24.9 24.2 23.7 23.1 22.7 22.2 21.8 21.5 21.2 20.9 20.7 20.5 20.3 20.1 20.1 122.8 128.3 87.3 63.3 66.2 60.7 71.9 101.0 83.2 38.1 28.5 25.7 24.8 24.1 23.5 23.0 22.5 22.0 21.6 21.2 21.0 20.7 20.5 20.3 20.1 20.1 175.3 206.6 144.6 120.4 147.0 155.1 179.6 184.1 117.3 43.4 30.2 26.8 25.5 24.7 23.9 23.2 22.6 22.0 21.5 21.2 20.9 20.7 20.5 20.3 20.1 20.1 194.1 220.8 163.4 173.7 230.2 230.5 214.4 177.8 108.2 44.3 30.1 27.1 25.9 24.9 24.0 23.2 22.5 21.9 21.5 21.1 20.9 20.7 20.5 20.3 20.1 20.1 126.9 163.7 152.7 165.1 189.6 176.6 137.2 99.8 74.3 41.8 29.0 26.3 25.4 24.5 23.7 22.9 22.3 21.9 21.5 21.2 20.9 20.7 20.5 20.3 20.1 20.1 52.6 91.8 106.0 97.8 88.0 90.0 89.1 65.4 46.2 33.9 27.1 25.4 24.7 23.9 23.3 22.6 22.1 21.8 21.4 21.2 20.9 20.7 20.5 20.3 20.2 20.1 27.7 40.2 45.6 41.8 38.8 43.5 54.2 49.4 34.7 27.7 25.7 24.8 24.2 23.6 23.0 22.4 22.0 21.6 21.4 21.1 20.9 20.7 20.5 20.3 20.1 20.1 20.0 20.0 20.1 20.1 20.0 20.0 20.0 20.0 20.0 20.0 20.0 20.0 20.0 20.0 20.0 20.0 20.0 20.0 20.0 20.0 20.0 20.1 20.1 20.1 20.0 20.0 20.1 20.1 20.1 20.1 20.1 20.1 20.1 20.1 20.1 20.1 20.1 20.1 20.1 20.1 20.1 20.1 20.1 20.1 20.1 20.1 20.1 20.1 20.1 20.1 20.1 20.0 20.2 20.2 20.2 20.2 20.2 20.2 20.2 20.2 20.2 20.2 20.2 20.2 20.2 20.2 20.2 20.2 20.2 20.2 20.2 20.2 20.2 20.2 20.2 20.1 20.1 20.0 20.3 20.3 20.3 20.3 20.3 20.3 20.3 20.3 20.3 20.3 20.3 20.3 20.3 20.3 20.3 20.3 20.3 20.3 20.3 20.3 20.3 20.3 20.2 20.1 20.1 20.0 20.4 20.4 20.5 20.5 20.5 20.4 20.4 20.5 20.5 20.5 20.5 20.5 20.4 20.4 20.4 20.4 20.4 20.4 20.4 20.4 20.4 20.4 20.3 20.2 20.1 20.0 20.6 20.6 20.6 20.6 20.6 20.6 20.6 20.6 20.7 20.7 20.7 20.6 20.6 20.5 20.5 20.5 20.5 20.5 20.5 20.5 20.5 20.4 20.3 20.2 20.1 20.0 20.7 20.8 20.8 20.8 20.8 20.7 20.7 20.8 20.9 20.9 20.9 20.8 20.7 20.7 20.7 20.7 20.7 20.7 20.6 20.6 20.5 20.4 20.3 20.2 20.1 20.0 20.9 20.9 21.0 21.0 21.0 20.9 20.9 21.0 21.1 21.1 21.1 21.1 21.0 20.9 20.9 20.8 20.8 20.8 20.7 20.6 20.5 20.4 20.3 20.2 20.1 20.0 21.0 21.1 21.2 21.2 21.2 21.1 21.1 21.2 21.2 21.3 21.3 21.2 21.2 21.1 21.1 21.0 20.9 20.9 20.8 20.7 20.5 20.4 20.3 20.2 20.1 20.0 21.1 21.2 21.3 21.4 21.4 21.4 21.4 21.4 21.5 21.5 21.5 21.4 21.4 21.3 21.2 21.1 21.0 20.9 20.8 20.7 20.5 20.4 20.3 20.2 20.1 20.0 21.3 21.4 21.5 21.6 21.7 21.6 21.7 21.7 21.8 21.8 21.7 21.6 21.5 21.5 21.3 21.2 21.1 21.0 20.9 20.7 20.6 20.4 20.3 20.2 20.1 20.0 21.6 21.6 21.7 21.9 22.0 22.0 22.0 22.1 22.2 22.1 22.0 21.9 21.7 21.6 21.5 21.3 21.2 21.1 21.0 20.8 20.6 20.4 20.3 20.2 20.1 20.0 21.9 22.0 22.0 22.2 22.2 22.3 22.4 22.5 22.6 22.5 22.4 22.1 21.9 21.8 21.6 21.5 21.4 21.2 21.0 20.8 20.6 20.4 20.3 20.2 20.1 20.0 22.3 22.4 22.4 22.5 22.6 22.7 22.8 22.9 23.0 22.9 22.6 22.4 22.1 22.0 21.8 21.7 21.5 21.2 21.0 20.8 20.6 20.4 20.3 20.2 20.1 20.0 22.