<?xml version="1.0"?>
<VTKFile type="PolyData" version="1.0" byte_order="LittleEndian" header_type="UInt64">
<PolyData>
<Piece NumberOfPoints="4084" NumberOfVerts="0" NumberOfLines="0" NumberOfPolys="0">
    <Points>
        <DataArray type="Float32" NumberOfComponents="3" format="ascii">
        16.1915 8.8621 1.2949 17.5709 10.9202 1.4190 19.2508 10.9983 1.3001 17.1582 10.0000 1.6000 16.6975 9.2400 1.1415 17.3622 10.5805 0.7879 16.9322 5.3684 5.1944 17.3928 8.0341 1.2302 15.9436 9.9726 0.9182 16.8806 9.0625 1.2487 16.7506 8.5337 1.7264 15.8663 9.0168 3.0528 16.0771 10.8325 0.8381 18.7231 10.2001 2.4840 15.6383 10.0744 2.5955 18.8086 10.2114 2.3985 19.1311 10.3197 2.0760 15.3489 10.7732 4.4967 18.5900 10.3117 2.6171 18.6472 10.2708 2.5599 18.4669 10.2402 2.7402 15.4486 10.5547 4.8265 15.0128 7.6695 4.3831 15.7786 11.8117 5.6617 15.5660 10.0000 1.0420 15.0744 9.7451 2.2842 15.5297 10.0000 1.1878 19.9714 12.8070 5.6370 15.1188 9.4600 1.5799 18.0769 12.1648 0.6060 17.9846 12.6025 0.6060 20.0598 12.8339 5.7207 16.2376 11.1860 1.1561 19.3884 10.6570 1.4634 15.1097 8.1380 4.1710 19.7322 11.7859 3.2283 17.9925 14.0000 0.7579 18.6876 10.8425 1.4461 15.4426 8.5823 2.4170 19.0356 10.9107 1.4760 16.5513 7.3192 2.4011 18.5440 11.0573 1.2602 16.3736 7.6875 1.1141 16.0932 1.4419 6.0087 15.5443 5.6829 2.2459 18.5717 10.8693 1.2610 16.8800 5.9511 0.8519 19.7420 10.9137 1.5092 16.7782 8.5759 1.0662 17.0734 4.2697 2.5260 18.5543 10.8976 1.1711 18.5043 10.2983 2.7028 16.8055 9.9777 1.0228 18.3617 10.2575 2.8454 16.4894 8.9703 2.2845 16.6740 9.1194 1.5904 18.2689 9.5902 1.0713 18.7176 10.3698 2.4896 18.1176 10.0000 2.4868 18.7513 9.7903 2.1212 18.3002 8.9805 2.1393 20.6719 4.3903 4.9267 18.5737 10.8593 1.4569 16.2035 7.6668 4.0080 18.6639 10.5519 2.5432 16.1104 8.0681 3.6025 18.6914 10.8038 2.1849 18.3109 11.0436 8.3940 16.8633 9.2964 1.6509 16.0182 14.6469 8.3940 19.2241 10.5339 1.4662 18.5406 10.6584 2.6665 18.4144 11.3533 8.3940 16.1990 7.8572 3.6333 16.3329 8.6483 2.5329 18.6137 10.8536 1.9223 16.9905 7.7117 3.6754 17.1656 9.2264 1.1409 19.1917 10.5959 1.3989 18.7403 10.5528 2.4668 18.1627 14.0536 8.3940 18.4499 14.1224 8.3940 18.4469 14.0456 8.3940 15.2386 14.4134 8.3940 17.5796 10.6556 8.3940 17.7971 9.4873 0.9599 16.6741 3.8357 5.5894 18.6051 10.5827 2.6020 18.7366 12.9705 8.3940 18.1420 13.9802 8.3940 17.4228 6.8583 5.0994 18.1253 14.3412 8.3940 17.7726 7.5590 3.7538 18.4198 8.8153 2.1790 18.9626 6.4391 3.8295 17.6022 10.4205 8.3940 18.7390 11.6941 0.3004 19.3596 6.0282 4.3586 18.5458 10.7715 2.6613 18.8334 12.5184 8.3940 18.7155 13.7430 8.3940 15.3016 13.8901 8.3940 15.5054 10.7148 8.3940 18.9092 12.5275 8.3940 18.8861 13.1908 8.3940 15.3633 14.5089 8.3940 18.4278 10.7740 2.7793 18.4114 9.1432 1.1347 18.8761 13.2462 8.3940 18.6247 10.5938 2.5824 18.6495 11.9150 8.3940 18.1697 11.0046 8.3940 20.3474 2.8551 5.9227 18.0133 8.8979 2.3905 18.5515 8.1043 3.4126 15.0581 10.8680 2.3897 15.1050 10.9124 2.0681 18.6851 10.6923 2.5220 16.8467 10.0000 1.6207 19.2963 8.1139 5.0682 18.0308 10.7160 3.1763 17.6605 10.9404 3.5466 16.8003 10.0000 3.3699 17.8538 10.8438 8.3940 17.7480 11.1878 3.4591 18.3884 10.4025 2.8187 18.7501 10.7286 2.4570 16.6823 10.5472 8.3940 15.4980 10.5844 8.3940 16.7998 10.4360 8.3940 18.4302 7.4608 5.0308 18.0109 10.5292 4.1249 15.7664 10.8039 8.3940 18.5535 13.8105 8.3940 15.2942 10.0000 1.9270 16.6392 14.7282 8.3940 17.6042 14.2565 8.3940 15.1654 10.0000 1.0914 15.4415 10.0000 1.8856 18.3679 6.6398 5.7629 16.7854 14.7817 8.3940 17.1907 14.4606 8.3940 15.2953 9.3906 3.8991 18.7143 10.5800 2.4928 17.3984 10.3903 8.3940 18.0704 10.2783 3.1367 15.8797 10.5430 8.3940 15.7789 10.5120 8.3940 18.5506 11.4022 8.3940 18.5628 10.6721 2.6443 17.0384 4.7164 6.8787 18.4563 10.7997 2.7508 16.5097 10.3431 8.3940 18.1001 10.8791 8.3940 17.3819 10.5167 8.3940 18.0476 11.2880 8.3940 18.8872 12.4840 8.3940 17.0702 11.0156 4.1369 18.0997 10.6075 3.1074 17.5230 10.5467 8.3940 16.0654 10.7620 8.3940 16.7978 14.7650 8.3940 16.0924 14.6804 8.3940 18.4299 11.7743 8.3940 15.0908 8.2607 3.7701 18.2808 10.7939 2.9264 17.9694 10.8390 3.2377 18.1480 10.4851 3.0591 18.5233 13.0580 8.3940 17.6111 14.4122 8.3940 16.2913 10.3837 8.3940 15.3752 10.0000 0.5898 16.3180 8.8675 5.6579 16.5518 10.4199 8.3940 17.0495 11.6159 4.6660 15.7334 11.8653 7.5296 18.5229 10.7696 2.6842 17.3402 14.5459 8.3940 18.4125 11.4431 8.3940 18.4373 10.6534 2.7698 17.3165 10.8599 3.8907 15.8920 14.3741 8.3940 15.5073 9.9629 1.4529 18.5191 10.3729 2.6880 18.3836 11.4843 8.3940 15.5191 9.9614 1.5583 18.2472 10.4918 2.9599 17.9686 10.9627 3.2385 15.8334 9.6172 4.0469 18.5559 13.4144 8.3940 18.7278 12.9411 8.3940 15.9206 10.9126 8.3940 17.3287 14.5905 8.3940 15.3404 11.8463 6.1321 16.8963 14.3321 8.3940 17.2094 10.6144 8.3940 18.3814 11.6001 8.3940 18.2145 11.2975 8.3940 15.0073 10.0000 1.7066 18.1308 10.3429 3.0763 18.6953 10.7862 2.5118 18.0999 10.7738 3.1072 18.4405 10.3198 2.7666 18.1016 11.0464 3.1056 18.1178 11.2012 3.0894 18.1032 10.8124 3.1039 18.1018 10.6253 3.1053 18.5427 10.7335 2.6644 15.6845 8.1162 1.3324 18.1582 11.0914 3.0490 17.9272 10.8346 3.2799 15.1529 9.0340 1.5685 18.2396 10.2937 2.9675 18.1960 10.7549 3.0111 16.2842 2.1804 5.4656 18.5132 10.5324 2.6939 18.1101 10.1692 3.0970 15.4363 7.4298 1.9817 18.6870 10.5413 2.5202 18.3493 10.6881 2.8578 15.2764 13.6974 8.3940 18.1742 11.1108 8.3940 18.7430 12.2013 8.3940 17.0008 14.3098 8.3940 18.7160 12.7436 8.3940 17.9770 10.8961 8.3940 18.5825 10.6110 2.6246 18.5109 10.3761 2.6962 18.5074 10.6810 2.6997 17.6512 14.4031 8.3940 17.7908 14.1118 8.3940 16.2951 14.6326 8.3940 15.2906 13.8438 8.3940 16.8292 10.8159 8.3940 15.4472 9.1091 1.6617 18.4001 10.2062 2.8070 17.0300 10.4661 8.3940 15.5652 14.2199 8.3940 15.2180 13.9831 8.3940 15.5837 14.2065 8.3940 15.2979 11.2459 8.3940 18.4064 12.4548 8.3940 15.1718 13.6686 8.3940 18.2635 13.4956 8.3940 18.3940 13.2174 8.3940 15.6297 11.0980 8.3940 18.4116 12.4906 8.3940 15.8285 10.9274 8.3940 18.2972 10.7965 2.9099 18.5803 10.5706 2.6268 17.8756 13.8062 8.3940 15.2054 11.5180 8.3940 18.3515 12.0204 8.3940 18.3481 13.7422 8.3940 17.5526 10.9944 8.3940 15.0139 9.4239 2.3506 15.3085 11.3448 8.3940 18.0842 11.5854 8.3940 15.6318 8.9838 1.5112 18.4299 11.8195 8.3940 18.2955 10.4711 2.9117 16.6092 10.6490 8.3940 15.7105 11.0796 8.3940 18.4685 10.2641 2.7386 15.9362 14.3723 8.3940 18.3979 12.4054 8.3940 18.2710 13.4763 8.3940 15.1289 8.3219 2.2351 17.9643 10.2572 3.2429 15.4901 10.7484 8.3940 15.5377 10.7439 8.3940 16.9541 14.2855 8.3940 15.6841 10.7631 8.3940 15.7655 13.9745 8.3940 17.0376 14.4602 8.3940 17.4031 14.2101 8.3940 18.6098 12.5763 8.3940 18.6559 12.3046 8.3940 17.2531 10.6650 8.3940 17.2587 10.6512 8.3940 17.3156 10.9644 8.3940 18.2697 12.0059 8.3940 18.1603 11.3723 8.3940 15.1165 8.7877 1.2985 15.3163 11.2367 8.3940 18.0858 10.9538 3.1213 17.1982 14.1498 8.3940 15.3267 11.2824 8.3940 15.6519 13.9323 8.3940 18.2659 10.6102 2.9412 17.0761 14.1817 8.3940 18.3732 12.4245 8.3940 15.8782 10.6906 8.3940 18.1931 11.3530 8.3940 17.8113 13.6485 8.3940 18.2208 13.1043 8.3940 16.8547 14.4760 8.3940 16.0115 5.9438 2.9297 16.3418 10.6401 8.3940 15.8090 13.9325 8.3940 18.1064 13.7415 8.3940 17.9086 13.8120 8.3940 15.8854 14.0790 8.3940 15.6003 11.1852 8.3940 15.7037 13.9264 8.3940 18.3314 12.5881 8.3940 15.8157 7.4503 2.6587 17.9087 11.4608 8.3940 18.5987 12.2197 8.3940 16.2646 5.7988 1.7202 16.6613 10.7508 8.3940 18.5121 11.9247 8.3940 17.3085 14.4074 8.3940 16.1318 14.3332 8.3940 18.1433 13.8258 8.3940 18.2389 12.3432 8.3940 18.0448 10.2733 3.1623 15.5735 10.9344 8.3940 18.4511 13.1719 8.3940 15.2547 11.1931 8.3940 16.7715 4.8432 1.3202 18.3624 12.3269 8.3940 16.8187 10.6069 8.3940 18.2040 10.0000 2.7805 16.9656 7.5666 2.5725 15.1509 11.3067 8.3940 16.5902 8.3905 1.3758 18.4551 13.2827 8.3940 18.2552 13.2733 8.3940 16.1210 14.4420 8.3940 15.3620 11.5328 8.3940 18.1593 11.6526 8.3940 16.3921 14.4249 8.3940 16.2284 10.7136 8.3940 18.1043 13.4621 8.3940 16.8806 14.1877 8.3940 18.3985 12.4478 8.3940 17.5652 11.0385 8.3940 17.6993 11.1675 8.3940 17.3965 13.9652 8.3940 16.1419 14.0195 8.3940 17.8064 14.0665 8.3940 18.2949 11.6501 8.3940 16.2035 2.8782 5.5785 18.1247 11.0638 3.0824 18.2524 10.5245 2.9547 18.0345 10.3141 3.1726 17.7873 11.0613 3.4198 18.2219 10.4426 2.9852 17.7653 11.1847 3.4418 17.3397 10.0000 2.1252 18.4821 10.7001 2.7251 16.7680 10.8941 8.3940 17.9216 10.0456 3.2855 15.1909 11.7285 8.3940 16.5933 7.7761 5.5647 18.3170 13.3525 8.3940 18.0606 10.9942 3.1465 16.0400 11.0646 8.3940 16.4140 10.7869 1.4710 18.1025 10.7342 3.1046 15.6413 13.6904 8.3940 17.8818 11.0800 3.3253 17.8596 10.7029 3.3475 18.3367 10.3916 2.8704 18.0741 11.2500 3.1330 17.9616 10.8984 3.2455 18.1811 13.7242 8.3940 16.1258 13.9899 8.3940 17.7974 14.0553 8.3940 17.2998 14.1918 8.3940 15.3797 11.2835 8.3940 18.3650 10.3117 2.8421 17.5984 10.5301 3.6087 15.9891 5.4936 6.4599 18.1425 11.6436 8.3940 15.7166 14.2002 8.3940 17.4010 10.0000 2.7874 16.2887 14.1358 8.3940 18.1032 13.4903 8.3940 17.9062 11.5080 8.3940 17.9866 10.6570 3.2205 16.4953 7.7609 4.4193 16.5508 11.0149 8.3940 17.2397 13.8460 8.3940 15.5571 14.0566 8.3940 16.9631 14.1717 8.3940 17.6460 10.0000 2.7213 18.2413 12.8003 8.3940 18.1660 12.5897 8.3940 17.5249 11.2503 8.3940 17.9939 10.8164 3.2132 16.6562 8.2536 3.2430 18.6826 10.7554 2.5245 15.6564 10.9644 8.3940 18.1448 12.0568 8.3940 15.6844 13.8345 8.3940 16.1401 10.9102 8.3940 17.5136 11.1872 8.3940 18.4116 10.6771 2.7955 18.1177 12.2571 8.3940 17.8161 10.1498 3.3910 18.4407 12.5429 8.3940 18.1324 12.8378 8.3940 15.3577 13.5046 8.3940 16.6793 14.2448 8.3940 18.0577 13.3972 8.3940 15.3046 13.1119 8.3940 17.8758 13.2608 8.3940 16.8032 14.1694 8.3940 18.1588 11.3504 3.0483 16.9379 10.5313 1.7774 15.2790 13.1433 8.3940 15.2962 13.3636 8.3940 18.2394 12.4739 8.3940 15.4186 11.7359 8.3940 16.6839 9.0117 5.0282 16.5021 8.5292 2.2493 18.2623 12.9968 8.3940 16.7677 14.3091 8.3940 17.3576 14.0715 8.3940 15.5208 13.5001 8.3940 18.0983 13.1238 8.3940 17.9458 13.4518 8.3940 17.8806 13.5857 8.394
[...]
    <PointData>
        <DataArray type="Float32" Name="tag" format="ascii">
            131.0000 2191.0000 2475.0000 3271.0000 5703.0000 5815.0000 8603.0000 9027.0000 9407.0000 9963.0000 10311.0000 10611.0000 11427.0000 11439.0000 12211.0000 12395.0000 12411.0000 12631.0000 13023.0000 13875.0000 14151.0000 14215.0000 14587.0000 14763.0000 17007.0000 18851.0000 19547.0000 21147.0000 21911.0000 23367.0000 23951.0000 24743.0000 25151.0000 30395.0000 30607.0000 30863.0000 32111.0000 33435.0000 33583.0000 35675.0000 35963.0000 35995.0000 36935.0000 39383.0000 39655.0000 39943.0000 40963.0000 41515.0000 41567.0000 41895.0000 42015.0000 43367.0000 46091.0000 46347.0000 46683.0000 50003.0000 64467.0000 65415.0000 66307.0000 63635.0000 65379.0000 66299.0000 47043.0000 47311.0000 47411.0000 48039.0000 48255.0000 48363.0000 48551.0000 49155.0000 49643.0000 49771.0000 50039.0000 50047.0000 50311.0000 50675.0000 50735.0000 50815.0000 51271.0000 52923.0000 53515.0000 53535.0000 53539.0000 54415.0000 55283.0000 55623.0000 56307.0000 56535.0000 57183.0000 58003.0000 58471.0000 58875.0000 59927.0000 59947.0000 60495.0000 60563.0000 61407.0000 62419.0000 62599.0000 62951.0000 63815.0000 63855.0000 63911.0000 63927.0000 64587.0000 64607.0000 64683.0000 64803.0000 65551.0000 66423.0000 66439.0000 66479.0000 66523.0000 66703.0000 66955.0000 84223.0000 82459.0000 82451.0000 74655.0000 72203.0000 71559.0000 80583.0000 84911.0000 67267.0000 68511.0000 68607.0000 69067.0000 69479.0000 69487.0000 69491.0000 69651.0000 69995.0000 70879.0000 70911.0000 71147.0000 71579.0000 71627.0000 71799.0000 71955.0000 72047.0000 72307.0000 72331.0000 72379.0000 72523.0000 73115.0000 73623.0000 74755.0000 74783.0000 74839.0000 74955.0000 75171.0000 75267.0000 75595.0000 75631.0000 75651.0000 75683.0000 75719.0000 76459.0000 77059.0000 77315.0000 77351.0000 77383.0000 77399.0000 77451.0000 77663.0000 78239.0000 78543.0000 79527.0000 79911.0000 79967.0000 79999.0000 80091.0000 80563.0000 80831.0000 81035.0000 81067.0000 81175.0000 81735.0000 81759.0000 82155.0000 82235.0000 82543.0000 82731.0000 83019.0000 83415.0000 83623.0000 83867.0000 84607.0000 84667.0000 85127.0000 85171.0000 85227.0000 85251.0000 85379.0000 85955.0000 85959.0000 86047.0000 86067.0000 86155.0000 99303.0000 103835.0000 105495.0000 97147.0000 105467.0000 99215.0000 99207.0000 101803.0000 100059.0000 102771.0000 99107.0000 93675.0000 97043.0000 101699.0000 100807.0000 102899.0000 101655.0000 99935.0000 102635.0000 101607.0000 105207.0000 86863.0000 86895.0000 86915.0000 86979.0000 86999.0000 87807.0000 88039.0000 88083.0000 88195.0000 88559.0000 88663.0000 88727.0000 89423.0000 89475.0000 89511.0000 89731.0000 90231.0000 90283.0000 90287.0000 90303.0000 90331.0000 90363.0000 90899.0000 90915.0000 90963.0000 91771.0000 91823.0000 91843.0000 91967.0000 92115.0000 92415.0000 93151.0000 93203.0000 93219.0000 93343.0000 93471.0000 93959.0000 93983.0000 94087.0000 94103.0000 94379.0000 94623.0000 94655.0000 95035.0000 95295.0000 95307.0000 95419.0000 95467.0000 95515.0000 96019.0000 96555.0000 96571.0000 96643.0000 96667.0000 96679.0000 96771.0000 97871.0000 97887.0000 97919.0000 97923.0000 97939.0000 98015.0000 98019.0000 98111.0000 98615.0000 98847.0000 99327.0000 99611.0000 99615.0000 99647.0000 100215.0000 100295.0000 100303.0000 100319.0000 100331.0000 100383.0000 100479.0000 101067.0000 101083.0000 101099.0000 101127.0000 101167.0000 101195.0000 101199.0000 101203.0000 101279.0000 101495.0000 101991.0000 102159.0000 102207.0000 102287.0000 102335.0000 103019.0000 103031.0000 103039.0000 103075.0000 103475.0000 103955.0000 104007.0000 104047.0000 104115.0000 104159.0000 104183.0000 104227.0000 104315.0000 104763.0000 104891.0000 104903.0000 104923.0000 104935.0000 104943.0000 104979.0000 105603.0000 105639.0000 105775.0000 105795.0000 106419.0000 106487.0000 106531.0000 106583.0000 106639.0000 106667.0000 106683.0000 106723.0000 106835.0000 118583.0000 110443.0000 121587.0000 121423.0000 116319.0000 122951.0000 121583.0000 120615.0000 123667.0000 120599.0000 116047.0000 119071.0000 111951.0000 112803.0000 109511.0000 117011.0000 120551.0000 109731.0000 111415.0000 112259.0000 113939.0000 124359.0000 111103.0000 111923.0000 111919.0000 111903.0000 112751.0000 124351.0000 118519.0000 107815.0000 120519.0000 111871.0000 120011.0000 111067.0000 123519.0000 124311.0000 114759.0000 118167.0000 115931.0000 124287.0000 115923.0000 115919.0000 125063.0000 119699.0000 114371.0000 120467.0000 120463.0000 111023.0000 118131.0000 113603.0000 110191.0000 118935.0000 123451.0000 112655.0000 122775.0000 117423.0000 118927.0000 119647.0000 116519.0000 118115.0000 112647.0000 121143.0000 121127.0000 124231.0000 118095.0000 109383.0000 111003.0000 122731.0000 124199.0000 119615.0000 118079.0000 118075.0000 118879.0000 114323.0000 124183.0000 124927.0000 124179.0000 118859.0000 112591.0000 112587.0000 122671.0000 115831.0000 118847.0000 118843.0000 114291.0000 122639.0000 118039.0000 111719.0000 126603.0000 112551.0000 120331.0000 118835.0000 109327.0000 121079.0000 125771.0000 111675.0000 119515.0000 118803.0000 118011.0000 122615.0000 125743.0000 120291.0000 125739.0000 124535.0000 118779.0000 124087.0000 121507.0000 122259.0000 113883.0000 118447.0000 116919.0000 118419.0000 116143.0000 123747.0000 119191.0000 119179.0000 107295.0000 107339.0000 107391.0000 107423.0000 107483.0000 107555.0000 108091.0000 108099.0000 108195.0000 108231.0000 108251.0000 108255.0000 108371.0000 108451.0000 108459.0000 109031.0000 109035.0000 109119.0000 109191.0000 109791.0000 109911.0000 109983.0000 110691.0000 110759.0000 110803.0000 110831.0000 110899.0000 110903.0000 111467.0000 111475.0000 111515.0000 111607.0000 111623.0000 111655.0000 113155.0000 113203.0000 113419.0000 113447.0000 113483.0000 113487.0000 114039.0000 114915.0000 114927.0000 114943.0000 114991.0000 115667.0000 115767.0000 116331.0000 116391.0000 116419.0000 117167.0000 117311.0000 117855.0000 117967.0000 118591.0000 118719.0000 118739.0000 119419.0000 119447.0000 120111.0000 120135.0000 120183.0000 120251.0000 121031.0000 121611.0000 121643.0000 121651.0000 121743.0000 122375.0000 122503.0000 122539.0000 123099.0000 123127.0000 123131.0000 123159.0000 123203.0000 123215.0000 123219.0000 123227.0000 123259.0000 123939.0000 124043.0000 124659.0000 124663.0000 124747.0000 124791.0000 124799.0000 124823.0000 125439.0000 125483.0000 125547.0000 125603.0000 125655.0000 125675.0000 126351.0000 126383.0000 126427.0000 126443.0000 126479.0000 140835.0000 137607.0000 127907.0000 137603.0000 146967.0000 139287.0000 136687.0000 135659.0000 140819.0000 129559.0000 130243.0000 136563.0000 132915.0000 135619.0000 131191.0000 131959.0000 146823.0000 130987.0000 130215.0000 130983.0000 145879.0000 130207.0000 135751.0000 130971.0000 130195.0000 127731.0000 135591.0000 129547.0000 136515.0000 133731.0000 128547.0000 136511.0000 137411.0000 142311.0000 130175.0000 130935.0000 135507.0000 128691.0000 131159.0000 136479.0000 132851.0000 138307.0000 135715.0000 145815.0000 135499.0000 127659.0000 146735.0000 127639.0000 143111.0000 130907.0000 146903.0000 143235.0000 134603.0000 145019.0000 130883.0000 140571.0000 136431.0000 129239.0000 137515.0000 129223.0000 130847.0000 145763.0000 130079.0000 131807.0000 129175.0000 134535.0000 140543.0000 136387.0000 129151.0000 129147.0000 134499.0000 130015.0000 133555.0000 140515.0000 127495.0000 135355.0000 132699.0000 139783.0000 128347.0000 128339.0000 135331.0000 136319.0000 134455.0000 132687.0000 129071.0000 134423.0000 127443.0000 134395.0000 133483.0000 141259.0000 137295.0000 143831.0000 144999.0000 140455.0000 146619.0000 142159.0000 140451.0000 146611.0000 129943.0000 132643.0000 143815.0000 129935.0000 135259.0000 131651.0000 129919.0000 127395.0000 130631.0000 145639.0000 139651.0000 139647.0000 142919.0000 140407.0000 129891.0000 145607.0000 134283.0000 146567.0000 132555.0000 140379.0000 131583.0000 142091.0000 142891.0000 129007.0000 130567.0000 138051.0000 143731.0000 129859.0000 145547.0000 142859.0000 134259.0000 132507.0000 128979.0000 142823.0000 135139.0000 139583.0000 146515.0000 128967.0000 140323.0000 138895.0000 129495.0000 145479.0000 140307.0000 145475.0000 142775.0000 137135.0000 127299.0000 141115.0000 140303.0000 136147.0000 136143.0000 142003.0000 138007.0000 145459.0000 136135.0000 144575.0000 133359.0000 135675.0000 144563.0000 145431.0000 145927.0000 144551.0000 127103.0000 127123.0000 127175.0000 127255.0000 127259.0000 128059.0000 128067.0000 128115.0000 128795.0000 128847.0000 129579.0000 129623.0000 129799.0000 130475.0000 131279.0000 131391.0000 131415.0000 132187.0000 132207.0000 132211.0000 132307.0000 132423.0000 132439.0000 133063.0000 133111.0000 133123.0000 133211.0000 133243.0000 133275.0000 133339.0000 134055.0000 134059.0000 134147.0000 134151.0000 134899.0000 134919.0000 134923.0000 134927.0000 134947.0000 134991.0000 135787.0000 135835.0000 135839.0000 135891.0000 135987.0000 135999.0000 136003.0000 136027.0000 136055.0000 136087.0000 136103.0000 136755.0000 136935.0000 136943.0000 137687.0000 137691.0000 137727.0000 137771.0000 137843.0000 137867.0000 137903.0000 137975.0000 138683.0000 138711.0000 138751.0000 138787.0000 138839.0000 139315.0000 139395.0000 139463.0000 139491.0000 140123.0000 140147.0000 140171.0000 140879.0000 140919.0000 140943.0000 141047.0000 141631.0000 141643.0000 141659.0000 141715.0000 141775.0000 141819.0000 141823.0000 141855.0000 141867.0000 141879.0000 142535.0000 142631.0000 142691.0000 142727.0000 143375.0000 143455.0000 143511.0000 143539.0000 143583.0000 143635.0000 143639.0000 144259.0000 144415.0000 144479.0000 144519.0000 145183.0000 145187.0000 145287.0000 145295.0000 145315.0000 146107.0000 146147.0000 146191.0000 146207.0000 146211.0000 146247.0000 146251.0000 146271.0000 146323.0000 146419.0000 152583.0000 164643.0000 151543.0000 147891.0000 156203.0000 147731.0000 147719.0000 160827.0000 160823.0000 147839.0000 155195.0000 156275.0000 147819.0000 151427.0000 162635.0000 150499.0000 168231.0000 152491.0000 166319.0000 151259.0000 152251.0000 152239.0000 157871.0000 148495.0000 152223.0000 151211.0000 148479.0000 152203.0000 164343.0000 159719.0000 157803.0000 155915.0000 149359.0000 149355.0000 151151.0000 155899.0000 151135.0000 152151.0000 156903.0000 158735.0000 147383.0000 158719.0000 149283.0000 171451.0000 150235.0000 150227.0000 151103.0000 160567.0000 160563.0000 152115.0000 154891.0000 156843.0000 169699.0000 150207.0000 153015.0000 157683.0000 160535.0000 147339.0000 171391.0000 148327.0000 164215.0000 158675.0000 149227.0000 154871.0000 152995.0000 152103.0000 158667.0000 158663.0000 160507.0000 151079.0000 166099.0000 152099.0000 160503.0000 154863.0000 162339.0000 160491.0000 147015.0000 147059.0000 147103.0000 147143.0000 147211.0000 147223.0000 147235.0000 147239.0000 147283.0000 147287.0000 147983.0000 148051.0000 148067.0000 148199.0000 148271.0000 148275.0000 148867.0000 148995.0000 149003.0000 149087.0000 149103.0000 149111.0000 149131.0000 149219.0000 149903.0000 149959.0000 149983.0000 149991.0000 150019.0000 150079.0000 150867.0000 150879.0000 150911.0000 150923.0000 150935.0000 150975.0000 150999.0000 151003.0000 151699.0000 151723.0000 151823.0000 151839.0000 151935.0000 151963.0000 151971.0000 151983.0000 151999.0000 152003.0000 152039.0000 152087.0000 152595.0000 152599.0000 152631.0000 152643.0000 152667.0000 152695.0000 152795.0000 152863.0000 152867.0000 152891.0000 152895.0000 152971.0000 152975.0000 153535.0000 153651.0000 153735.0000 153827.0000 153831.0000 153851.0000 153943.0000 153959.0000 153963.0000 154519.0000 154587.0000 154707.0000 154719.0000 154743.0000 154819.0000 155431.0000 155447.0000 155491.0000 155663.0000 155675.0000 155711.0000 156375.0000 156531.0000 156587.0000 156607.0000 156687.0000 156699.0000 156707.0000 156711.0000 156799.0000 157275.0000 157287.0000 157319.0000 157371.0000 157411.0000 157427.0000 157435.0000 157447.0000 157471.0000 157579.0000 158259.0000 158267.0000 158523.0000 158527.0000 158603.0000 158655.0000 159143.0000 159303.0000 159331.0000 159371.0000 159387.0000 159395.0000 159435.0000 159503.0000 159531.0000 159559.0000 160095.0000 160111.0000 160151.0000 160207.0000 160303.0000 160311.0000 160395.0000 160411.0000 160415.0000 160459.0000 161031.0000 161107.0000 161115.0000 161163.0000 161195.0000 161211.0000 161219.0000 161387.0000 161439.0000 162059.0000 162935.0000 162987.0000 163031.0000 163051.0000 163103.0000 163147.0000 163203.0000 163315.0000 163331.0000 163395.0000 163443.0000 163787.0000 163875.0000 164127.0000 164759.0000 164767.0000 164915.0000 164939.0000 165067.0000 165099.0000 165167.0000 165171.0000 165207.0000 165299.0000 165767.0000 165771.0000 165863.0000 165903.0000 166679.0000 166791.0000 166859.0000 166903.0000 167059.0000 167471.0000 167727.0000 167747.0000 167803.0000 168611.0000 168619.0000 168935.0000 169147.0000 170159.0000 170199.0000 170207.0000 170211.0000 170227.0000 170299.0000 170383.0000 170527.0000 170563.0000 170571.0000 170823.0000 171263.0000 171811.0000 171823.0000 171827.0000 171967.0000 171983.0000 172083.0000 172103.0000 172107.0000 172111.0000 172115.0000 172119.0000 172163.0000 172219.0000 172263.0000 172639.0000 172711.0000 172799.0000 172855.0000 197319.0000 203239.0000 174991.0000 213711.0000 205907.0000 189911.0000 201727.0000 207667.0000 179895.0000 192599.0000 213439.0000 194039.0000 207371.0000 187983.0000 195523.0000 178207.0000 192575.0000 213427.0000 208831.0000 202899.0000 203159.0000 198475.0000 198467.0000 207335.0000 201707.0000 201407.0000 189851.0000 181535.0000 174915.0000 204307.0000 204655.0000 192523.0000 204651.0000 195771.0000 187947.0000 205851.0000 192487.0000 174895.0000 191331.0000 174883.0000 190907.0000 204291.0000 200207.0000 183247.0000 208763.0000 213675.0000 179811.0000 206107.0000 192415.0000 195375.0000 210279.0000 187895.0000 213335.0000 210503.0000 191295.0000 200167.0000 210219.0000 201259.0000 181615.0000 183019.0000 183015.0000 204223.0000 204531.0000 195671.0000 195335.0000 184627.0000 192743.0000 213631.0000 211643.0000 210179.0000 196879.0000 211955.0000 183003.0000 186195.0000 181395.0000 201627.0000 196859.0000 202751.0000 176491.0000 197187.0000 184587.0000 195295.0000 204191.0000 202731.0000 178027.0000 178023.0000 213247.0000 174731.0000 194151.0000 197155.0000 207127.0000 174715.0000 207123.0000 178003.0000 200131.0000 193771.0000 213575.0000 192311.0000 195227.0000 174679.0000 206011.0000 181291.0000 179623.0000 198235.0000 187739.0000 189371.0000 193719.0000 208567.0000 181599.0000 201107.0000 184851.0000 186091.0000 196779.0000 181263.0000 179579.0000 208547.0000 205627.0000 208539.0000 187679.0000 207491.0000 188087.0000 203023.0000 204419.0000 198575.0000 201475.0000 205935.0000 173447.0000 173587.0000 173703.0000 173707.0000 173907.0000 174567.0000 175163.0000 175171.0000 175251.0000 175259.0000 175351.0000 175399.0000 175407.0000 175455.0000 175551.0000 213507.0000 176155.0000 176191.0000 176235.0000 176343.0000 176775.0000 176779.0000 176787.0000 176947.0000 176995.0000 177063.0000 177091.0000 177095.0000 177403.0000 177683.0000 177899.0000 178423.0000 178443.0000 178515.0000 178583.0000 178635.0000 178743.0000 178799.0000 179251.0000 179495.0000 180083.0000 180247.0000 180279.0000 180287.0000 180295.0000 180319.0000 180339.0000 180447.0000 180455.0000 180543.0000 180759.0000 180883.0000 180931.0000 181819.0000 182039.0000 182091.0000 182263.0000 182487.0000 183371.0000 183383.0000 183435.0000 183603.0000 183627.0000 183683.0000 183687.0000 183783.0000 184235.0000 184403.0000 184431.0000 184983.0000 185003.0000 185047.0000 185303.0000 185335.0000 185351.0000 185375.0000 185483.0000 185631.0000 185859.0000 187079.0000 187111.0000 187251.0000 187291.0000 187471.0000 187539.0000 187563.0000 188279.0000 188391.0000 188443.0000 188527.0000 188583.0000 188643.0000 188711.0000 188819.0000 189115.0000 189143.0000 189219.0000 189299.0000 189935.0000 189967.0000 190083.0000 190191.0000 190267.0000 190291.0000 190355.0000 190359.0000 190395.0000 190407.0000 190615.0000 191415.0000 191475.0000 191487.0000 191523.0000 191579.0000 191703.0000 191771.0000 191807.0000 191935.0000 191955.0000 191967.0000 192175.0000 193007.0000 193043.0000 193091.0000 193147.0000 193155.0000 193263.0000 193271.0000 193275.0000 193339.0000 193371.0000 193399.0000 193403.0000 194395.0000 194435.0000 194599.0000 194623.0000 194747.0000 194831.0000 194871.0000 194907.0000 194991.0000 195083.0000 195119.0000 195147.0000 195859.0000 195887.0000 195919.0000 196071.0000 196243.0000 196263.0000 196287.0000 196355.0000 196363.0000 196403.0000 197447.0000 197491.0000 197543.0000 197591.0000 197687.0000 197859.0000 197931.0000 197943.0000 197947.0000 198991.0000 199051.0000 199083.0000 199087.0000 199091.0000 199099.0000 199127.0000 199195.0000 199227.0000 199395.0000 199599.0000 200303.0000 200331.0000 200387.0000 200451.0000 200471.0000 200519.0000 200547.0000 200635.0000 200639.0000 200643.0000 201027.0000 201771.0000 201823.0000 201871.0000 202035.0000 202055.0000 202111.0000 202163.0000 202195.0000 202219.0000 202283.0000 202315.0000 202515.0000 203267.0000 203371.0000 203479.0000 203495.0000 203607.0000 203611.0000 203639.0000 203879.0000 204775.0000 204867.0000 204887.0000 204895.0000 204927.0000 204983.0000 205391.0000 205407.0000 205543.0000 205595.0000 206375.0000 206419.0000 206479.0000 206503.0000 206603.0000 206643.0000 206651.0000 206655.0000 206823.0000 206871.0000 206991.0000 207735.0000 207767.0000 207811.0000 207895.0000 207959.0000 207971.0000 207979.0000 208019.0000 208055.0000 208099.0000 208115.0000 208159.0000 208455.0000 208531.0000 209247.0000 209291.0000 209367.0000 209415.0000 209451.0000 209483.0000 209519.0000 209539.0000 209543.0000 209551.0000 209591.0000 209595.0000 210023.0000 210027.0000 210651.0000 210671.0000 210683.0000 210735.0000 210739.0000 210803.0000 210815.0000 210827.0000 210871.0000 210943.0000 210983.0000 211027.0000 211107.0000 211259.0000 211407.0000 211503.0000 212219.0000 212251.0000 212331.0000 212351.0000 212363.0000 212367.0000 212387.0000 212399.0000 212419.0000 212439.0000 212443.0000 212455.0000 212519.0000 212567.0000 212727.0000 212823.0000 212839.0000 212959.0000 212963.0000 212967.0000 213039.0000 213083.0000 224071.0000 215383.0000 222627.0000 241815.0000 246443.0000 243359.0000 236031.0000 219723.0000 225271.0000 222559.0000 239959.0000 247639.0000 240251.0000 243339.0000 247631.0000 234615.0000 232707.0000 246103.0000 252255.0000 222227.0000 231415.0000 236003.0000 249127.0000 220887.0000 238807.0000 222223.0000 243011.0000 241731.0000 215331.0000 251003.0000 232643.0000 229551.0000 215315.0000 229543.0000 224007.0000 238543.0000 232631.0000 246071.0000 231399.0000 239863.0000 239859.0000 246051.0000 228347.0000 242947.0000 252211.0000 228151.0000 232951.0000 250983.0000 232587.0000 222147.0000 252195.0000 238751.0000 249455.0000 250595.0000 235695.0000 234275.0000 250587.0000 241375.0000 221075.0000 232931.0000 241367.0000 232911.0000 238467.0000 231359.0000 237351.0000 235663.0000 244807.0000 249431.0000 247867.0000 247863.0000 250539.0000 235651.0000 252139.0000 241335.0000 215067.0000 238455.0000 221055.0000 226639.0000 234511.0000 241295.0000 247383.0000 235647.0000 244359.0000 234191.0000 223687.0000 252499.0000 247835.0000 228071.0000 239707.0000 226587.0000 217875.0000 245927.0000 220751.0000 232863.0000 226575.0000 248875.0000 226803.0000 239695.0000 250951.0000 229355.0000 221991.0000 247335.0000 252495.0000 225323.0000 235619.0000 223639.0000 252047.0000 232451.0000 237303.0000 221987.0000 244755.0000 249375.0000 222383.0000 219215.0000 247303.0000 226531.0000 235579.0000 247291.0000 241199.0000 252475.0000 250947.0000 232827.0000 235871.0000 232811.0000 235863.0000 246319.0000 244731.0000 237279.0000 232775.0000 241587.0000 235811.0000 235803.0000 247791.0000 243135.0000 243127.0000 250895.0000 241519.0000 228243.0000 249287.0000 243083.0000 2