<?xml version="1.0"?>
<VTKFile type="RectilinearGrid" version="1.0" byte_order="LittleEndian" header_type="UInt64">
<RectilinearGrid WholeExtent="25 50 0 25 0 15">
<Piece Extent="25 50 0 25 0 15">
<Coordinates>
<DataArray type="Float64" Name="Array X-Axis" format="ascii" RangeMin="15.0" RangeMax="30.0">
15.0 15.6 16.2 16.8 17.4 18.0 18.6 19.2 19.8 20.4 21.0 21.6 22.2 22.8 23.4 24.0 24.6 25.2 25.8 26.4 27.0 27.6 28.2 28.8 29.4 30.0 
</DataArray>
<DataArray type="Float64" Name="Array Y-Axis" format="ascii" RangeMin="0.0" RangeMax="15.0">
0.0 0.6 1.2 1.8 2.4 3.0 3.6 4.2 4.8 5.4 6.0 6.6 7.2 7.8 8.4 9.0 9.6 10.2 10.8 11.4 12.0 12.6 13.2 13.8 14.4 15.0 
</DataArray>
<DataArray type="Float64" Name="Array Z-Axis" format="ascii" RangeMin="0.0" RangeMax="9.0">
0.0 0.6 1.2 1.8 2.4 3.0 3.6 4.2 4.8 5.4 6.0 6.6 7.2 7.8 8.4 9.0 
</DataArray>
</Coordinates>
<PointData>
<DataArray Name="TEMPERATURE" NumberOfComponents="1" type="Float64" format="ascii">
20.0 20.0 20.0 20.0 20.0 20.0 20.0 20.0 20.0 20.1 20.0 20.0 20.0 20.0 20.0 20.0 20.0 20.0 20.0 20.0 20.0 20.0 20.1 20.1 20.1 20.1 20.1 20.1 20.1 20.1 20.1 20.1 20.1 20.1 20.1 20.1 20.1 20.1 20.1 20.1 20.1 20.1 20.1 20.1 20.1 20.1 20.1 20.1 20.1 20.1 20.1 20.1 20.1 20.1 20.2 20.2 20.2 20.2 20.2 20.2 20.2 20.2 20.2 20.2 20.1 20.1 20.1 20.1 20.1 20.2 20.2 20.2 20.2 20.2 20.2 20.2 20.1 20.1 20.2 20.2 20.2 20.2 20.3 20.2 20.2 20.3 20.3 20.3 20.3 20.2 20.2 20.2 20.2 20.2 20.3 20.3 20.3 20.3 20.3 20.3 20.3 20.2 20.1 20.1 20.3 20.3 20.3 20.3 20.3 20.3 20.3 20.3 20.4 20.4 20.4 20.3 20.3 20.3 20.4 20.4 20.4 20.4 20.4 20.4 20.4 20.4 20.3 20.2 20.1 20.0 20.4 20.4 20.4 20.4 20.5 20.4 20.4 20.5 20.5 20.5 20.5 20.5 20.5 20.5 20.5 20.5 20.5 20.5 20.5 20.5 20.4 20.4 20.3 20.2 20.1 20.0 20.5 20.5 20.6 20.6 20.6 20.6 20.6 20.6 20.7 20.7 20.7 20.7 20.6 20.7 20.7 20.7 20.6 20.6 20.6 20.5 20.5 20.4 20.3 20.2 20.1 20.0 20.7 20.7 20.7 20.8 20.8 20.8 20.8 20.9 20.9 20.9 20.9 20.8 20.8 20.8 20.8 20.8 20.7 20.7 20.6 20.6 20.5 20.4 20.3 20.2 20.1 20.0 20.8 20.9 20.9 21.0 21.0 21.0 21.1 21.1 21.2 21.2 21.1 21.0 21.0 21.0 20.9 20.9 20.8 20.8 20.7 20.6 20.5 20.4 20.3 20.2 20.1 20.0 21.0 21.1 21.1 21.3 21.3 21.3 21.3 21.4 21.5 21.4 21.3 21.2 21.1 21.1 21.0 21.0 20.9 20.8 20.8 20.7 20.6 20.4 20.3 20.2 20.1 20.0 21.1 21.2 21.3 21.5 21.6 21.6 21.7 21.7 21.7 21.6 21.4 21.4 21.3 21.2 21.2 21.1 21.0 20.9 20.8 20.7 20.6 20.4 20.3 20.2 20.1 20.0 21.3 21.4 21.5 21.7 21.8 21.9 22.0 22.1 22.0 21.8 21.7 21.6 21.5 21.4 21.3 21.2 21.1 21.0 20.9 20.7 20.6 20.4 20.3 20.2 20.1 20.1 21.5 21.6 21.8 21.9 22.1 22.3 22.4 22.4 22.3 22.0 21.9 21.8 21.7 21.6 21.4 21.3 21.2 21.1 20.9 20.8 20.6 20.4 20.3 20.2 20.1 20.1 21.7 21.8 22.0 22.2 22.5 22.7 22.8 22.9 22.7 22.4 22.2 22.0 21.9 21.7 21.6 21.5 21.3 21.2 21.0 20.8 20.6 20.4 20.3 20.2 20.1 20.1 21.9 22.1 22.3 22.6 22.9 23.3 23.4 23.3 23.0 22.7 22.5 22.3 22.1 21.9 21.8 21.6 21.4 21.2 21.0 20.8 20.6 20.4 20.3 20.2 20.1 20.1 22.2 22.4 22.7 23.0 23.5 23.9 24.0 23.9 23.6 23.2 22.9 22.6 22.4 22.1 21.9 21.7 21.5 21.2 21.0 20.8 20.6 20.4 20.3 20.2 20.1 20.1 22.5 22.8 23.1 23.5 24.0 24.5 24.8 24.7 24.4 23.8 23.3 23.0 22.6 22.3 22.1 21.8 21.5 21.3 21.0 20.8 20.6 20.4 20.3 20.2 20.1 20.1 22.8 23.2 23.6 24.2 25.1 26.0 26.1 25.8 25.2 24.4 23.8 23.3 22.9 22.6 22.2 21.9 21.6 21.3 21.0 20.8 20.6 20.5 20.4 20.3 20.1 20.1 23.2 23.6 24.3 25.4 26.6 27.7 27.9 27.1 26.2 25.1 24.2 23.7 23.2 22.8 22.4 22.1 21.7 21.4 21.1 20.9 20.7 20.6 20.4 20.3 20.1 20.1 23.9 24.4 26.4 29.8 31.0 31.9 31.9 29.5 27.8 26.1 24.9 24.3 23.7 23.2 22.7 22.3 21.9 21.5 21.2 20.9 20.8 20.6 20.4 20.3 20.1 20.1 24.8 25.3 27.7 32.6 34.9 35.5 35.0 33.0 30.9 27.4 25.9 25.1 24.4 23.6 22.9 22.4 21.9 21.5 21.2 20.9 20.8 20.6 20.4 20.3 20.1 20.1 25.4 26.4 27.9 32.1 35.4 20.0 20.0 35.5 32.5 28.3 26.7 25.7 24.8 23.8 23.0 22.4 21.9 21.5 21.2 20.9 20.7 20.6 20.4 20.3 20.1 20.1 25.2 26.5 28.3 32.6 35.9 20.0 20.0 32.8 30.9 28.2 26.7 25.5 24.5 23.6 23.0 22.4 21.8 21.5 21.2 20.9 20.7 20.6 20.4 20.3 20.1 20.1 24.6 25.6 27.7 32.0 34.2 33.3 33.2 31.1 28.8 27.0 25.8 24.7 24.0 23.3 22.8 22.3 21.8 21.4 21.2 20.9 20.7 20.6 20.4 20.3 20.1 20.1 23.9 24.6 26.2 28.9 30.4 30.8 30.7 29.0 26.8 25.4 24.7 24.0 23.5 23.0 22.6 22.2 21.8 21.4 21.2 20.9 20.7 20.6 20.4 20.3 20.1 20.1 22.6 23.8 24.8 25.9 26.7 27.4 27.5 26.6 25.4 24.6 24.0 23.4 23.0 22.6 22.3 21.9 21.6 21.3 21.1 20.8 20.7 20.5 20.4 20.3 20.1 20.1 20.0 20.0 20.0 20.0 20.0 20.0 20.0 20.0 20.0 20.0 20.0 20.0 20.0 20.0 20.0 20.0 20.0 20.0 20.0 20.0 20.0 20.0 20.1 20.1 20.1 20.1 20.1 20.1 20.1 20.1 20.1 20.1 20.1 20.1 20.1 20.1 20.1 20.1 20.1 20.1 20.1 20.1 20.1 20.1 20.1 20.1 20.1 20.1 20.1 20.1 20.1 20.1 20.1 20.1 20.1 20.2 20.2 20.2 20.1 20.2 20.2 20.2 20.2 20.1 20.1 20.1 20.1 20.1 20.1 20.1 20.2 20.2 20.2 20.2 20.2 20.2 20.1 20.1 20.2 20.2 20.2 20.2 20.2 20.2 20.2 20.2 20.3 20.3 20.2 20.2 20.2 20.2 20.2 20.2 20.2 20.3 20.3 20.3 20.3 20.3 20.3 20.2 20.1 20.1 20.3 20.3 20.3 20.3 20.3 20.3 20.3 20.3 20.4 20.4 20.4 20.3 20.3 20.3 20.3 20.4 20.4 20.4 20.4 20.4 20.4 20.3 20.3 20.2 20.1 20.0 20.4 20.4 20.4 20.4 20.4 20.4 20.4 20.5 20.5 20.5 20.5 20.5 20.5 20.5 20.5 20.5 20.5 20.5 20.5 20.4 20.4 20.4 20.3 20.2 20.1 20.0 20.5 20.5 20.6 20.6 20.6 20.6 20.6 20.6 20.7 20.7 20.7 20.6 20.6 20.6 20.6 20.6 20.6 20.6 20.5 20.5 20.5 20.4 20.3 20.2 20.1 20.0 20.6 20.7 20.7 20.8 20.8 20.8 20.8 20.9 20.9 20.9 20.9 20.8 20.8 20.8 20.8 20.7 20.7 20.6 20.6 20.5 20.5 20.4 20.3 20.2 20.1 20.0 20.8 20.9 20.9 21.0 21.1 21.1 21.1 21.1 21.2 21.2 21.1 21.0 21.0 20.9 20.9 20.8 20.8 20.7 20.7 20.6 20.5 20.4 20.3 20.2 20.1 20.0 20.9 21.0 21.1 21.2 21.3 21.3 21.4 21.4 21.5 21.4 21.2 21.2 21.1 21.1 21.0 20.9 20.9 20.8 20.7 20.6 20.5 20.4 20.3 20.2 20.1 20.0 21.1 21.2 21.3 21.5 21.6 21.6 21.7 21.8 21.7 21.6 21.4 21.3 21.3 21.2 21.1 21.0 20.9 20.9 20.8 20.7 20.6 20.4 20.3 20.2 20.1 20.0 21.3 21.4 21.5 21.7 21.9 22.0 22.1 22.1 22.0 21.8 21.6 21.6 21.5 21.4 21.3 21.2 21.1 21.0 20.9 20.7 20.6 20.4 20.3 20.2 20.1 20.0 21.5 21.6 21.8 22.0 22.2 22.3 22.5 22.5 22.3 22.1 21.9 21.8 21.7 21.5 21.4 21.3 21.2 21.1 20.9 20.7 20.6 20.4 20.3 20.2 20.1 20.0 21.7 21.9 22.1 22.3 22.6 22.8 23.0 23.0 22.7 22.4 22.2 22.1 21.9 21.7 21.6 21.4 21.3 21.1 21.0 20.8 20.6 20.4 20.3 20.2 20.1 20.0 21.9 22.2 22.4 22.7 23.1 23.5 23.6 23.4 23.2 22.8 22.6 22.4 22.2 21.9 21.8 21.6 21.4 21.2 21.0 20.8 20.6 20.4 20.3 20.2 20.1 20.0 22.2 22.5 22.8 23.2 23.7 24.1 24.3 24.1 23.7 23.3 23.0 22.7 22.4 22.2 21.9 21.7 21.5 21.2 21.0 20.8 20.6 20.4 20.3 20.2 20.1 20.1 22.6 22.9 23.3 23.8 24.3 24.9 25.3 25.1 24.5 23.9 23.4 23.1 22.7 22.4 22.1 21.8 21.5 21.3 21.0 20.8 20.6 20.4 20.3 20.2 20.1 20.1 23.0 23.4 23.9 24.6 25.4 26.3 26.8 26.3 25.4 24.6 23.9 23.5 23.0 22.6 22.3 21.9 21.6 21.3 21.1 20.8 20.6 20.5 20.3 20.2 20.1 20.1 23.4 23.9 24.8 27.0 28.4 28.6 29.6 28.6 26.4 25.3 24.5 23.9 23.4 22.9 22.5 22.1 21.8 21.5 21.2 20.9 20.7 20.5 20.4 20.3 20.1 20.1 24.1 25.0 28.1 34.4 38.4 37.9 36.1 32.1 28.2 26.4 25.3 24.5 23.9 23.3 22.8 22.3 21.9 21.5 21.2 20.9 20.7 20.6 20.4 20.3 20.1 20.1 25.0 26.0 29.5 38.9 74.7 124.2 102.4 50.3 32.8 28.5 26.3 25.4 24.6 23.8 23.1 22.5 22.0 21.6 21.2 21.0 20.7 20.6 20.4 20.3 20.1 20.1 26.0 27.0 28.7 39.6 131.2 362.5 293.9 80.0 36.9 30.2 27.2 26.0 25.0 24.0 23.2 22.5 22.0 21.6 21.2 20.9 20.7 20.5 20.4 20.3 20.1 20.1 25.7 27.1 29.8 43.3 139.8 369.0 305.3 91.5 38.8 29.8 27.1 25.9 24.8 23.8 23.2 22.5 22.0 21.6 21.2 20.9 20.7 20.5 20.4 20.3 20.1 20.1 24.7 26.1 31.2 43.2 80.8 125.4 108.5 61.9 36.0 27.7 26.1 25.0 24.2 23.5 23.0 22.4 21.9 21.5 21.2 20.9 20.7 20.6 20.4 20.3 20.1 20.1 24.1 25.0 28.8 35.2 37.6 35.8 33.9 32.5 29.2 25.9 25.0 24.2 23.6 23.1 22.6 22.2 21.8 21.5 21.2 20.9 20.7 20.6 20.4 20.3 20.1 20.1 22.7 24.0 25.1 27.4 28.9 28.8 28.4 27.3 26.0 24.9 24.3 23.6 23.1 22.7 22.3 22.0 21.6 21.3 21.1 20.8 20.6 20.5 20.4 20.3 20.1 20.1 20.0 20.0 20.0 20.0 20.0 20.0 20.0 20.0 20.0 20.0 20.0 20.0 20.0 20.0 20.0 20.0 20.0 20.0 20.0 20.0 20.0 20.0 20.0 20.1 20.1 20.1 20.1 20.1 20.1 20.1 20.1 20.1 20.1 20.1 20.1 20.1 20.1 20.1 20.1 20.1 20.1 20.1 20.1 20.1 20.1 20.1 20.1 20.1 20.1 20.1 20.1 20.1 20.1 20.1 20.1 20.1 20.1 20.1 20.1 20.1 20.1 20.2 20.1 20.1 20.1 20.1 20.1 20.1 20.1 20.1 20.1 20.1 20.2 20.2 20.2 20.2 20.1 20.1 20.2 20.2 20.2 20.2 20.2 20.2 20.2 20.2 20.2 20.2 20.2 20.2 20.2 20.2 20.2 20.2 20.2 20.2 20.2 20.2 20.2 20.2 20.2 20.2 20.1 20.0 20.2 20.2 20.3 20.3 20.3 20.3 20.3 20.3 20.3 20.3 20.3 20.3 20.3 20.3 20.3 20.3 20.3 20.3 20.3 20.3 20.3 20.3 20.2 20.2 20.1 20.0 20.3 20.4 20.4 20.4 20.4 20.4 20.4 20.5 20.5 20.5 20.5 20.5 20.4 20.4 20.4 20.4 20.4 20.4 20.4 20.4 20.3 20.3 20.2 20.2 20.1 20.0 20.5 20.5 20.5 20.6 20.6 20.6 20.6 20.7 20.7 20.7 20.7 20.6 20.6 20.6 20.6 20.5 20.5 20.5 20.4 20.4 20.4 20.3 20.2 20.1 20.1 20.0 20.6 20.6 20.7 20.8 20.8 20.8 20.8 20.9 20.9 20.9 20.8 20.8 20.7 20.7 20.7 20.6 20.6 20.5 20.5 20.5 20.4 20.3 20.2 20.1 20.1 20.0 20.8 20.8 20.9 21.0 21.1 21.1 21.1 21.2 21.2 21.1 21.0 20.9 20.9 20.8 20.8 20.7 20.7 20.6 20.6 20.5 20.4 20.3 20.2 20.1 20.1 20.0 20.9 21.0 21.1 21.2 21.3 21.4 21.4 21.5 21.5 21.3 21.2 21.1 21.0 21.0 20.9 20.8 20.8 20.7 20.6 20.6 20.5 20.4 20.2 20.1 20.1 20.0 21.1 21.2 21.3 21.5 21.6 21.7 21.8 21.8 21.7 21.6 21.4 21.3 21.2 21.1 21.0 20.9 20.9 20.8 20.7 20.6 20.5 20.4 20.2 20.1 20.1 20.0 21.2 21.4 21.6 21.8 21.9 22.0 22.2 22.2 22.1 21.8 21.6 21.5 21.4 21.3 21.2 21.1 21.0 20.9 20.8 20.7 20.5 20.4 20.2 20.1 20.1 20.0 21.5 21.6 21.8 22.1 22.3 22.5 22.7 22.6 22.4 22.1 21.9 21.8 21.7 21.5 21.4 21.2 21.1 21.0 20.8 20.7 20.5 20.4 20.2 20.1 20.1 20.0 21.7 21.9 22.2 22.5 22.8 23.1 23.2 23.2 22.9 22.5 22.3 22.1 21.9 21.7 21.5 21.4 21.2 21.1 20.9 20.7 20.5 20.4 20.2 20.2 20.1 20.0 22.0 22.3 22.6 23.0 23.4 23.8 23.9 23.7 23.4 23.0 22.7 22.5 22.2 22.0 21.7 21.5 21.3 21.1 20.9 20.7 20.5 20.4 20.2 20.2 20.1 20.0 22.4 22.7 23.1 23.6 24.2 24.6 24.9 24.6 24.1 23.6 23.2 22.9 22.5 22.2 21.9 21.7 21.5 21.2 21.0 20.8 20.6 20.4 20.3 20.2 20.1 20.0 22.8 23.1 23.7 24.4 25.0 25.8 26.4 25.9 24.9 24.2 23.8 23.3 22.9 22.5 22.1 21.8 21.6 21.3 21.0 20.8 20.6 20.4 20.3 20.2 20.1 20.0 23.2 23.8 24.5 26.6 27.6 28.2 30.1 28.9 26.3 25.1 24.4 23.8 23.2 22.8 22.4 22.0 21.7 21.4 21.1 20.8 20.6 20.4 20.3 20.2 20.1 20.1 23.8 24.6 26.0 30.9 33.3 34.1 41.8 38.3 28.0 26.0 25.1 24.3 23.7 23.1 22.6 22.2 21.9 21.5 21.2 20.9 20.7 20.5 20.4 20.2 20.1 20.1 24.5 26.7 30.9 40.5 49.1 55.1 61.3 50.7 33.7 27.8 26.1 25.0 24.2 23.6 23.0 22.5 22.1 21.7 21.3 21.0 20.7 20.5 20.4 20.3 20.1 20.1 25.7 28.1 33.6 53.9 115.2 177.2 163.8 101.8 59.4 38.7 27.8 26.0 25.0 24.1 23.4 22.7 22.2 21.7 21.3 21.0 20.7 20.5 20.4 20.3 20.1 20.1 26.9 28.3 32.6 76.1 221.8 377.3 337.6 176.8 80.7 43.3 29.2 26.9 25.5 24.5 23.6 22.9 22.2 21.8 21.3 21.0 20.7 20.5 20.4 20.2 20.1 20.1 26.6 28.2 33.6 84.5 239.9 392.7 365.5 211.4 84.3 35.1 28.8 26.8 25.5 24.3 23.5 22.8 22.2 21.7 21.3 21.0 20.7 20.5 20.4 20.2 20.1 20.1 25.3 27.1 35.2 65.2 135.5 186.9 181.9 132.9 62.4 29.7 27.1 25.7 24.7 23.8 23.2 22.6 22.1 21.6 21.3 20.9 20.7 20.5 20.4 20.3 20.1 20.1 24.4 25.7 31.2 42.7 50.9 47.3 42.0 39.4 32.5 26.9 25.6 24.7 23.9 23.3 22.8 22.3 21.9 21.5 21.2 20.9 20.7 20.5 20.4 20.3 20.1 20.1 23.0 24.5 25.6 29.1 32.0 31.5 30.2 28.7 26.9 25.7 24.8 24.1 23.4 22.9 22.4 22.1 21.7 21.4 21.1 20.8 20.6 20.5 20.3 20.2 20.1 20.1 20.0 20.0 20.0 20.0 20.0 20.0 20.0 20.0 20.0 20.0 20.0 20.0 20.0 20.0 20.0 20.0 20.0 20.0 20.0 20.0 20.0 20.0 20.0 20.1 20.1 20.1 20.0 20.1 20.1 20.1 20.1 20.1 20.1 20.1 20.1 20.1 20.1 20.1 20.1 20.1 20.1 20.1 20.1 20.1 20.1 20.1 20.1 20.1 20.1 20.1 20.1 20.1 20.1 20.1 20.1 20.1 20.1 20.1 20.1 20.1 20.1 20.1 20.1 20.1 20.1 20.1 20.1 20.1 20.1 20.1 20.1 20.1 20.1 20.1 20.1 20.1 20.1 20.1 20.2 20.2 20.2 20.2 20.2 20.2 20.2 20.2 20.2 20.2 20.2 20.2 20.2 20.2 20.2 20.2 20.2 20.2 20.2 20.2 20.2 20.2 20.2 20.2 20.1 20.0 20.2 20.3 20.3 20.3 20.3 20.3 20.3 20.3 20.4 20.4 20.3 20.3 20.3 20.3 20.3 20.3 20.3 20.3 20.3 20.3 20.3 20.2 20.2 20.2 20.1 20.0 20.3 20.4 20.4 20.4 20.5 20.5 20.5 20.5 20.5 20.5 20.5 20.5 20.4 20.4 20.4 20.4 20.4 20.4 20.4 20.3 20.3 20.3 20.2 20.1 20.1 20.0 20.5 20.5 20.6 20.6 20.6 20.6 20.7 20.7 20.7 20.7 20.7 20.6 20.6 20.6 20.5 20.5 20.5 20.5 20.4 20.4 20.3 20.3 20.2 20.1 20.1 20.0 20.6 20.7 20.7 20.8 20.9 20.9 20.9 21.0 21.0 20.9 20.8 20.8 20.7 20.7 20.7 20.6 20.6 20.5 20.5 20.4 20.4 20.3 20.2 20.1 20.1 20.0 20.8 20.8 20.9 21.0 21.1 21.1 21.2 21.2 21.2 21.1 21.0 20.9 20.9 20.8 20.8 20.7 20.6 20.6 20.5 20.5 20.4 20.3 20.2 20.1 20.1 20.0 20.9 21.0 21.1 21.3 21.4 21.4 21.5 21.5 21.5 21.4 21.2 21.1 21.0 21.0 20.9 20.8 20.7 20.7 20.6 20.5 20.4 20.3 20.2 20.1 20.1 20.0 21.1 21.2 21.3 21.5 21.6 21.7 21.8 21.9 21.8 21.6 21.4 21.3 21.2 21.1 21.0 20.9 20.8 20.8 20.7 20.6 20.5 20.4 20.2 20.1 20.1 20.0 21.3 21.4 21.6 21.8 22.0 22.1 22.3 22.3 22.1 21.9 21.7 21.6 21.4 21.3 21.2 21.1 21.0 20.8 20.7 20.6 20.5 20.4 20.3 20.1 20.1 20.0 21.5 21.7 21.9 22.2 22.4 22.6 22.8 22.7 22.5 22.2 22.0 21.8 21.7 21.5 21.4 21.2 21.1 21.0 20.8 20.7 20.5 20.4 20.3 20.1 20.1 20.0 21.7 22.0 22.2 22.6 22.9 23.2 23.4 23.3 23.0 22.6 22.4 22.2 22.0 21.8 21.6 21.4 21.2 21.1 20.9 20.7 20.6 20.4 20.3 20.2 20.1 20.0 22.0 22.3 22.7 23.2 23.6 23.9 24.2 24.0 23.6 23.2 22.9 22.6 22.3 22.0 21.8 21.6 21.3 21.2 21.0 20.8 20.6 20.4 20.3 20.2 20.1 20.0 22.4 22.9 23.4 23.9 24.5 24.9 25.2 25.0 24.4 23.8 23.4 23.0 22.7 22.3 22.0 21.7 21.5 21.2 21.0 20.8 20.6 20.4 20.3 20.2 20.1 20.0 22.9 23.6 25.2 26.0 26.2 27.3 27.5 26.5 25.4 24.6 24.0 23.5 23.0 22.6 22.2 21.9 21.6 21.3 21.1 20.8 20.6 20.4 20.3 20.2 20.1 20.0 23.4 24.4 27.9 30.4 29.6 31.6 34.2 31.3 27.2 25.6 24.8 24.1 23.5 22.9 22.5 22.1 21.8 21.4 21.2 20.9 20.7 20.5 20.3 20.2 20.1 20.1 25.0 26.4 30.7 35.9 35.6 42.6 55.8 46.4 30.0 26.8 25.7 24.8 24.0 23.4 22.8 22.4 22.0 21.6 21.3 21.0 20.7 20.5 20.4 20.2 20.1 20.1 26.6 31.0 39.9 50.5 55.0 75.2 97.8 74.3 41.9 31.5 27.1 25.6 24.6 23.9 23.2 22.7 22.2 21.8 21.4 21.1 20.8 20.6 20.4 20.3 20.1 20.1 28.5 33.5 49.5 88.9 141.2 189.7 206.0 159.7 102.4 57.9 29.5 26.7 25.4 24.5 23.6 23.0 22.4 21.9 21.4 21.1 20.8 20.6 20.4 20.3 20.1 20.1 29.9 32.9 55.4 152.5 294.6 378.4 375.5 290.9 168.4 71.7 31.5 27.8 26.2 24.9 23.9 23.2 22.5 21.9 21.5 21.1 20.8 20.5 20.4 20.2 20.1 20.1 29.3 33.9 60.7 163.4 315.4 410.3 423.1 326.4 153.3 50.1 30.7 27.8 26.1 24.8 23.9 23.1 22.4 21.9 21.5 21.1 20.8 20.5 20.4 20.2 20.1 20.1 27.0 31.3 49.3 95.2 160.8 207.1 227.9 183.4 83.6 33.3 28.2 26.5 25.2 24.2 23.4 22.8 22.3 21.8 21.4 21.0 20.8 20.5 20.4 20.2 20.1 20.1 24.9 26.7 32.0 42.0 51.8 53.7 54.8 51.4 37.6 28.5 26.4 25.2 24.3 23.6 23.0 22.5 22.0 21.7 21.3 21.0 20.7 20.5 20.4 20.2 20.1 20.1 23.3 25.2 26.4 28.9 31.9 33.2 33.6 32.0 28.7 26.4 25.4 24.5 23.7 23.1 22.6 22.2 21.8 21.5 21.2 20.9 20.7 20.5 20.3 20.2 20.1 20.1 20.0 20.0 20.0 20.0 20.0 20.0 20.0 20.0 20.0 20.0 20.0 20.0 20.0 20.0 20.0 20.0 20.0 20.0 20.0 20.0 20.0 20.0 20.0 20.1 20.1 20.1 20.1 20.1 20.1 20.1 20.1 20.1 20.1 20.1 20.1 20.1 20.1 20.1 20.1 20.1 20.1 20.1 20.1 20.1 20.1 20.1 20.1 20.1 20.1 20.1 20.1 20.1 20.1 20.1 20.1 20.1 20.1 20.1 20.1 20.2 20.2 20.2 20.2 20.1 20.1 20.1 20.1 20.1 20.1 20.1 20.2 20.2 20.2 20.2 20.2 20.2 20.1 20.1 20.2 20.2 20.2 20.2 20.2 20.2 20.2 20.2 20.3 20.3 20.3 20.2 20.2 20.2 20.2 20.2 20.2 20.2 20.2 20.2 20.2 20.2 20.2 20.2 20.1 20.1 20.3 20.3 20.3 20.3 20.4 20.3 20.3 20.4 20.4 20.4 20.4 20.4 20.4 20.4 20.4 20.4 20.4 20.3 20.3 20.3 20.3 20.3 20.2 20.2 20.1 20.0 20.4 20.4 20.5 20.5 20.5 20.5 20.5 20.6 20.6 20.6 20.6 20.5 20.5 20.5 20.5 20.5 20.5 20.4 20.4 20.4 20.3 20.3 20.2 20.2 20.1 20.0 20.5 20.6 20.6 20.7 20.7 20.7 20.7 20.8 20.8 20.8 20.7 20.7 20.7 20.6 20.6 20.6 20.5 20.5 20.5 20.4 20.4 20.3 20.3 20.2 20.1 20.0 20.7 20.7 20.8 20.9 20.9 21.0 21.0 21.0 21.1 21.0 20.9 20.8 20.8 20.8 20.7 20.7 20.6 20.6 20.5 20.5 20.4 20.3 20.3 20.2 20.1 20.0 20.8 20.9 21.0 21.1 21.2 21.2 21.3 21.3 21.3 21.2 21.1 21.0 21.0 20.9 20.9 20.8 20.7 20.6 20.6 20.5 20.5 20.4 20.3 20.2 20.1 20.0 21.0 21.1 21.2 21.3 21.4 21.5 21.6 21.6 21.6 21.4 21.3 21.2 21.1 21.1 21.0 20.9 20.8 20.7 20.7 20.6 20.5 20.4 20.3 20.2 20.1 20.0 21.1 21.3 21.4 21.6 21.7 21.8 21.9 22.0 21.9 21.7 21.5 21.4 21.3 21.2 21.1 21.0 20.9 20.8 20.7 20.6 20.5 20.4 20.3 20.2 20.1 20.0 21.3 21.5 21.7 21.9 22.0 22.1 22.3 22.4 22.2 22.0 21.8 21.7 21.6 21.4 21.3 21.2 21.0 20.9 20.8 20.7 20.6 20.4 20.3 20.2 20.1 20.0 21.5 21.7 21.9 22.2 22.4 22.6 22.8 22.8 22.6 22.3 22.1 22.0 21.8 21.6 21.5 21.3 21.2 21.0 20.9 20.8 20.6 20.5 20.3 20.2 20.1 20.0 21.8 22.0 22.3 22.6 22.9 23.1 23.4 23.4 23.1 22.8 22.5 22.3 22.1 21.9 21.7 21.5 21.3 21.2 21.0 20.8 20.6 20.5 20.3 20.2 20.1 20.0 22.1 22.4 22.8 23.1 23.5 23.8 24.2 24.2 23.7 23.3 23.0 22.7 22.4 22.2 21.9 21.7 21.5 21.3 21.1 20.9 20.7 20.5 20.3 20.2 20.1 20.0 22.6 23.9 24.5 24.1 24.2 24.7 25.1 25.1 24.5 24.0 23.5 23.2 22.8 22.5 22.2 21.9 21.6 21.4 21.1 20.9 20.7 20.5 20.3 20.2 20.1 20.0 23.7 26.1 28.2 27.1 26.2 27.6 27.7 26.5 25.6 24.8 24.2 23.7 23.2 22.8 22.4 22.0 21.7 21.5 21.2 20.9 20.7 20.5 20.3 20.2 20.1 20.1 25.0 29.3 34.3 32.6 28.0 30.8 34.2 30.9 27.3 25.9 25.0 24.3 23.7 23.1 22.7 22.3 21.9 21.6 21.3 21.0 20.8 20.5 20.4 20.2 20.1 20.1 30.8 36.7 42.7 40.9 31.4 38.4 50.0 42.6 32.1 27.7 26.0 25.0 24.2 23.6 23.0 22.5 22.1 21.8 21.4 21.1 20.8 20.6 20.4 20.3 20.1 20.1 34.0 46.5 63.4 66.5 49.0 65.0 92.8 76.4 50.9 35.2 27.6 26.0 24.8 24.1 23.4 22.9 22.4 22.0 21.6 21.2 20.9 20.6 20.4 20.3 20.1 20.1 33.0 51.2 91.8 132.1 120.0 142.1 191.0 177.6 128.8 62.8 30.2 27.2 25.8 24.8 23.9 23.2 22.6 22.1 21.6 21.3 20.9 20.6 20.4 20.3 20.1 20.1 33.8 51.9 116.5 227.4 239.7 267.2 344.5 325.5 212.7 76.9 32.2 28.4 26.6 25.3 24.2 23.4 22.7 22.2 21.7 21.2 20.9 20.6 20.4 20.3 20.1 20.1 33.6 56.9 128.2 238.7 250.8 302.9 401.9 337.5 175.0 55.2 31.3 28.2 26.5 25.1 24.1 23.3 22.7 22.1 21.7 21.2 20.9 20.6 20.4 20.3 20.1 20.1 30.8 50.1 90.9 128.2 127.0 171.8 238.3 192.8 93.9 39.2 28.7 26.8 25.5 24.4 23.7 23.0 22.5 22.0 21.6 21.2 20.9 20.6 20.4 20.3 20.1 20.1 27.4 34.7 42.9 43.8 44.5 57.4 80.0 82.5 55.6 32.9 26.8 25.5 24.6 23.8 23.2 22.7 22.2 21.8 21.5 21.1 20.9 20.6 20.4 20.3 20.1 20.1 25.0 28.7 29.4 29.6 31.2 35.8 43.5 43.5 33.6 27.1 25.6 24.7 24.0 23.3 22.8 22.4 22.0 21.7 21.3 21.0 20.8 20.6 20.4 20.2 20.1 20.1 20.0 20.0 20.0 20.0 20.0 20.0 20.0 20.0 20.0 20.1 20.0 20.0 20.0 20.0 20.0 20.0 20.0 20.0 20.0 20.0 20.0 20.1 20.1 20.1 20.1 20.1 20.1 20.1 20.1 20.1 20.1 20.1 20.1 20.1 20.1 20.1 20.1 20.1 20.1 20.1 20.1 20.1 20.1 20.1 20.1 20.1 20.1 20.1 20.1 20.1 20.1 20.1 20.1 20.1 20.2 20.2 20.2 20.1 20.1 20.2 20.2 20.2 20.2 20.2 20.2 20.2 20.2 20.2 20.2 20.2 20.2 20.2 20.2 20.2 20.2 20.2 20.1 20.1 20.2 20.2 20.2 20.3 20.2 20.2 20.2 20.3 20.3 20.3 20.3 20.3 20.3 20.3 20.3 20.3 20.3 20.3 20.3 20.3 20.3 20.3 20.3 20.2 20.1 20.1 20.3 20.3 20.4 20.4 20.4 20.4 20.4 20.4 20.5 20.5 20.5 20.4 20.4 20.4 20.4 20.4 20.4 20.4 20.4 20.4 20.4 20.3 20.3 20.2 20.1 20.1 20.4 20.5 20.5 20.6 20.6 20.6 20.6 20.6 20.7 20.7 20.6 20.6 20.6 20.6 20.6 20.6 20.5 20.5 20.5 20.4 20.4 20.4 20.3 20.2 20.1 20.0 20.6 20.6 20.7 20.8 20.8 20.8 20.8 20.9 20.9 20.9 20.8 20.8 20.7 20.7 20.7 20.7 20.6 20.6 20.5 20.5 20.4 20.4 20.3 20.2 20.1 20.0 20.7 20.8 20.9 21.0 21.0 21.0 21.1 21.2 21.2 21.1 21.0 20.9 20.9 20.9 20.8 20.8 20.7 20.7 20.6 20.6 20.5 20.4 20.3 20.2 20.1 20.0 20.9 21.0 21.1 21.2 21.2 21.3 21.4 21.4 21.4 21.3 21.2 21.1 21.1 21.0 21.0 20.9 20.8 20.7 20.7 20.6 20.5 20.5 20.3 20.2 20.1 20.0 21.0 21.1 21.3 21.4 21.5 21.5 21.6 21.7 21.7 21.5 21.4 21.3 21.2 21.2 21.1 21.0 20.9 20.8 20.8 20.7 20.6 20.5 20.3 20.2 20.1 20.0 21.2 21.3 21.5 21.7 21.8 21.8 22.0 22.1 22.0 21.8 21.6 21.5 21.4 21.3 21.2 21.1 21.0 20.9 20.9 20.8 20.6 20.5 20.4 20.2 20.1 20.0 21.3 21.5 21.7 21.9 22.0 22.2 22.4 22.4 22.3 22.1 21.9 21.8 21.7 21.5 21.4 21.3 21.2 21.1 20.9 20.8 20.7 20.5 20.4 20.2 20.1 20.1 21.6 21.8 22.0 22.2 22.4 22.6 22.8 22.9 22.7 22.4 22.2 22.1 21.9 21.8 21.6 21.5 21.3 21.2 21.0 20.9 20.7 20.5 20.4 20.2 20.1 20.1 21.8 22.0 22.3 22.6 22.8 23.1 23.4 23.5 23.2 22.8 22.6 22.4 22.2 22.0 21.8 21.6 21.5 21.3 21.1 20.9 20.8 20.6 20.4 20.2 20.1 20.1 22.1 22.5 22.9 23.0 23.2 23.6 24.0 24.1 23.8 23.4 23.0 22.8 22.5 22.3 22.0 21.8 21.6 21.4 21.2 21.0 20.8 20.6 20.4 20.2 20.1 20.1 23.1 25.3 25.7 24.2 23.9 24.3 24.8 24.9 24.5 24.0 23.6 23.2 22.9 22.6 22.3 22.0 21.8 21.5 21.3 21.0 20.8 20.6 20.4 20.2 20.1 20.1 30.5 35.1 32.7 27.6 25.5 26.3 27.0 26.3 25.4 24.7 24.2 23.7 23.3 22.9 22.5 22.2 21.9 21.6 21.4 21.1 20.8 20.6 20.4 20.2 20.1 20.1 39.5 46.6 42.8 32.0 26.1 28.6 31.1 29.5 27.3 25.8 25.0 24.3 23.7 23.2 22.8 22.4 22.1 21.8 21.5 21.2 20.9 20.6 20.4 20.3 20.1 20.1 47.4 58.9 56.1 39.5 27.0 31.1 37.1 40.4 37.6 29.3 26.0 25.0 24.2 23.6 23.1 22.7 22.3 22.0 21.6 21.3 21.0 20.7 20.5 20.3 20.2 20.1 50.8 77.0 87.6 63.5 37.4 47.4 64.5 83.0 75.8 41.7 27.9 26.0 24.9 24.2 23.6 23.0 22.6 22.1 21.8 21.4 21.1 20.8 20.5 20.3 20.2 20.1 47.7 91.3 135.6 117.3 77.7 107.5 145.4 179.4 146.6 57.7 30.5 27.3 25.9 24.9 24.0 23.3 22.8 22.3 21.8 21.4 21.0 20.7 20.5 20.3 20.2 20.1 47.4 99.9 179.7 187.6 149.6 219.3 293.0 299.7 193.9 57.4 32.0 28.5 26.7 25.4 24.4 23.5 22.9 22.4 21.9 21.4 21.0 20.7 20.5 20.3 20.1 20.1 49.6 108.4 192.1 196.0 159.9 251.8 345.7 302.5 157.8 45.9 30.8 28.1 26.5 25.2 24.3 23.5 22.9 22.3 21.9 21.4 21.0 20.7 20.5 20.3 20.1 20.1 52.4 93.2 136.9 119.2 90.5 146.3 214.8 194.6 108.3 44.0 28.4 26.6 25.5 24.5 23.9 23.2 22.7 22.2 21.8 21.4 21.0 20.7 20.5 20.3 20.2 20.1 49.6 63.9 65.9 52.3 42.8 59.3 95.6 106.5 72.1 37.6 26.7 25.5 24.6 23.9 23.4 22.9 22.4 22.0 21.7 21.3 21.0 20.7 20.5 20.3 20.2 20.1 38.0 49.8 43.2 34.9 32.4 37.1 50.7 51.1 35.8 27.4 25.6 24.8 24.0 23.5 23.0 22.5 22.2 21.8 21.5 21.2 20.9 20.7 20.4 20.3 20.1 20.1 20.0 20.0 20.0 20.0 20.0 20.0 20.0 20.0 20.1 20.1 20.1 20.0 20.0 20.0 20.0 20.0 20.0 20.0 20.0 20.1 20.1 20.1 20.1 20.1 20.1 20.1 20.1 20.1 20.1 20.1 20.1 20.1 20.1 20.1 20.1 20.1 20.1 20.1 20.1 20.1 20.1 20.1 20.1 20.1 20.1 20.1 20.1 20.1 20.1 20.2 20.1 20.1 20.1 20.1 20.2 20.2 20.2 20.1 20.1 20.2 20.2 20.2 20.2 20.2 20.2 20.2 20.2 20.2 20.2 20.2 20.2 20.2 20.2 20.3 20.3 20.2 20.2 20.1 20.2 20.2 20.2 20.3 20.3 20.2 20.2 20.3 20.3 20.3 20.3 20.3 20.3 20.3 20.3 20.4 20.4 20.4 20.4 20.4 20.4 20.3 20.3 20.3 20.2 20.1 20.3 20.4 20.4 20.4 20.4 20.4 20.4 20.5 20.5 20.5 20.5 20.5 20.5 20.5 20.5 20.5 20.5 20.5 20.5 20.5 20.4 20.4 20.3 20.3 20.1 20.1 20.5 20.5 20.6 20.6 20.6 20.6 20.6 20.7 20.7 20.8 20.7 20.7 20.6 20.6 20.6 20.6 20.6 20.6 20.6 20.5 20.5 20.4 20.4 20.3 20.1 20.1 20.6 20.7 20.8 20.8 20.8 20.8 20.9 20.9 21.0 21.0 20.9 20.8 20.8 20.8 20.8 20.8 20.7 20.7 20.6 20.6 20.5 20.5 20.4 20.3 20.1 20.1 20.8 20.9 21.0 21.0 21.0 21.0 21.1 21.2 21.3 21.2 21.1 21.0 21.0 20.9 20.9 20.9 20.8 20.7 20.7 20.6 20.6 20.5 20.4 20.3 20.1 20.1 20.9 21.0 21.1 21.2 21.2 21.3 21.4 21.5 21.5 21.4 21.3 21.1 21.1 21.1 21.0 21.0 20.9 20.8 20.8 20.7 20.6 20.5 20.4 20.3 20.1 20.1 21.0 21.2 21.3 21.4 21.5 21.5 21.7 21.8 21.7 21.6 21.4 21.3 21.3 21.2 21.1 21.1 21.0 20.9 20.8 20.8 20.7 20.6 20.4 20.3 20.1 20.1 21.2 21.3 21.5 21.6 21.7 21.8 22.0 22.1 22.0 21.8 21.6 21.5 21.4 21.4 21.3 21.2 21.1 21.0 20.9 20.9 20.7 20.6 20.4 20.3 20.1 20.1 21.3 21.5 21.7 21.9 22.0 22.1 22.3 22.4 22.3 22.0 21.9 21.8 21.7 21.6 21.5 21.3 21.2 21.1 21.0 20.9 20.8 20.6 20.4 20.3 20.1 20.1 21.5 21.7 22.0 22.2 22.3 22.6 22.8 22.8 22.6 22.4 22.2 22.0 21.9 21.8 21.6 21.5 21.4 21.2 21.1 21.0 20.8 20.6 20.4 20.3 20.1 20.1 21.7 22.0 22.3 22.5 22.7 23.1 23.4 23.4 23.1 22.8 22.5 22.4 22.2 22.0 21.8 21.7 21.5 21.4 21.2 21.1 20.9 20.6 20.4 20.3 20.1 20.1 22.1 22.5 22.8 22.9 23.1 23.4 23.9 24.0 23.6 23.3 23.0 22.7 22.5 22.3 22.1 21.8 21.7 21.5 21.3 21.1 20.9 20.7 20.4 20.3 20.1 20.1 23.4 25.5 25.6 24.2 23.8 24.1 24.6 24.8 24.3 23.8 23.5 23.2 22.8 22.6 22.3 22.0 21.8 21.6 21.4 21.2 20.9 20.7 20.4 20.3 20.1 20.1 35.2 41.4 35.6 28.1 25.4 25.9 26.6 26.2 25.3 24.6 24.1 23.6 23.2 22.9 22.5 22.2 21.9 21.7 21.5 21.2 20.9 20.7 20.5 20.3 20.1 20.1 56.3 62.0 44.9 29.3 26.5 28.1 28.7 28.4 27.1 25.5 24.8 24.2 23.6 23.2 22.8 22.4 22.1 21.9 21.6 21.3 21.0 20.7 20.5 20.3 20.2 20.1 68.6 76.5 53.8 31.4 30.2 31.8 31.6 38.7 38.9 29.6 25.7 24.9 24.2 23.6 23.1 22.7 22.4 22.1 21.8 21.4 21.1 20.8 20.5 20.3 20.2 20.1 74.2 100.7 79.6 47.3 48.5 49.7 51.7 89.9 91.2 45.6 27.6 25.7 24.8 24.2 23.6 23.1 22.7 22.3 21.9 21.5 21.2 20.8 20.6 20.3 20.2 20.1 79.7 129.5 117.8 85.9 112.1 126.9 119.8 172.4 151.1 58.1 31.5 27.1 25.7 24.9 24.1 23.4 22.9 22.4 22.0 21.6 21.2 20.8 20.5 20.3 20.2 20.1 83.5 148.8 151.4 130.0 201.9 259.4 249.3 249.0 159.6 50.7 32.8 28.2 26.5 25.3 24.4 23.6 23.0 22.5 22.0 21.6 21.1 20.8 20.5 20.3 20.2 20.1 89.6 158.5 160.1 122.7 189.3 260.9 264.1 238.3 130.3 41.0 30.1 27.7 26.2 25.1 24.3 23.6 22.9 22.4 22.0 21.6 21.1 20.8 20.5 20.3 20.2 20.1 99.2 142.5 140.5 92.5 95.4 128.2 146.2 156.2 104.0 42.2 28.0 26.4 25.4 24.5 24.0 23.4 22.8 22.4 22.0 21.6 21.2 20.8 20.5 20.3 20.2 20.1 94.3 113.3 102.5 69.7 46.5 52.0 74.6 88.9 67.1 37.0 26.7 25.3 24.6 23.9 23.4 23.0 22.5 22.2 21.8 21.5 21.1 20.8 20.5 20.3 20.2 20.1 62.5 89.6 79.0 54.2 37.9 34.8 43.4 43.0 32.0 27.0 25.5 24.6 23.9 23.4 22.9 22.6 22.2 22.0 21.7 21.3 21.0 20.7 20.5 20.3 20.2 20.1 20.0 20.0 20.0 20.0 20.0 20.0 20.0 20.0 20.1 20.1 20.1 20.0 20.0 20.0 20.0 20.0 20.1 20.1 20.1 20.1 20.1 20.1 20.1 20.1 20.2 20.2 20.1 20.1 20.1 20.1 20.1 20.1 20.1 20.1 20.1 20.1 20.1 20.1 20.1 20.1 20.1 20.1 20.1 20.1 20.1 20.1 20.1 20.2 20.2 20.2 20.2 20.2 20.1 20.1 20.1 20.2 20.2 20.1 20.1 20.2 20.2 20.2 20.2 20.2 20.2 20.2 20.2 20.2 20.2 20.3 20.3 20.3 20.3 20.3 20.3 20.3 20.2 20.1 20.2 20.2 20.2 20.3 20.3 20.2 20.3 20.3 20.3 20.4 20.4 20.3 20.3 20.3 20.4 20.4 20.4 20.4 20.4 20.4 20.4 20.4 20.4 20.3 20.2 20.1 20.3 20.4 20.4 20.4 20.4 20.4 20.4 20.5 20.5 20.6 20.6 20.5 20.5 20.5 20.5 20.5 20.6 20.5 20.5 20.5 20.5 20.4 20.4 20.3 20.2 20.1 20.5 20.5 20.6 20.6 20.6 20.6 20.6 20.7 20.8 20.8 20.8 20.7 20.7 20.7 20.7 20.7 20.7 20.6 20.6 20.6 20.5 20.5 20.4 20.3 20.2 20.1 20.6 20.7 20.8 20.8 20.8 20.8 20.9 21.0 21.0 21.0 20.9 20.9 20.8 20.8 20.8 20.8 20.7 20.7 20.7 20.6 20.6 20.5 20.4 20.3 20.1 20.1 20.8 20.9 20.9 21.0 21.0 21.0 21.1 21.2 21.3 21.2 21.1 21.0 21.0 20.9 20.9 20.9 20.8 20.8 20.7 20.7 20.6 20.6 20.5 20.3 20.1 20.1 20.9 21.0 21.1 21.2 21.2 21.3 21.3 21.5 21.5 21.4 21.2 21.1 21.1 21.0 21.0 20.9 20.9 20.8 20.8 20.7 20.7 20.6 20.5 20.3 20.1 20.1 21.0 21.1 21.3 21.4 21.4 21.5 21.6 21.7 21.7 21.6 21.4 21.3 21.2 21.2 21.1 21.1 21.0 20.9 20.9 20.8 20.7 20.6 20.5 20.3 20.1 20.1 21.1 21.3 21.4 21.6 21.6 21.8 21.9 22.0 22.0 21.7 21.6 21.5 21.4 21.3 21.3 21.2 21.1 21.0 20.9 20.9 20.8 20.7 20.5 20.3 20.1 20.1 21.3 21.5 21.6 21.8 21.9 22.1 22.3 22.4 22.2 22.0 21.8 21.7 21.6 21.5 21.4 21.3 21.2 21.1 21.0 21.0 20.8 20.7 20.5 20.3 20.1 20.1 21.4 21.7 21.9 22.0 22.2 22.5 22.7 22.7 22.6 22.3 22.1 22.0 21.8 21.7 21.6 21.4 21.3 21.2 21.1 21.0 20.9 20.7 20.5 20.3 20.1 20.1 21.6 21.9 22.1 22.3 22.6 23.0 23.2 23.2 23.0 22.7 22.4 22.3 22.1 21.9 21.8 21.6 21.5 21.3 21.2 21.1 20.9 20.7 20.5 20.3 20.1 20.1 21.9 22.3 22.6 22.7 22.9 23.3 23.8 23.8 23.5 23.1 22.8 22.6 22.4 22.2 22.0 21.8 21.6 21.4 21.3 21.1 20.9 20.7 20.5 20.3 20.1 20.1 22.8 24.1 24.3 23.6 23.5 24.0 24.5 24.6 24.1 23.6 23.3 23.0 22.7 22.4 22.2 21.9 21.7 21.5 21.4 21.2 20.9 20.7 20.5 20.3 20.1 20.1 30.4 35.1 32.3 27.2 25.1 25.4 26.1 25.9 25.0 24.3 23.9 23.5 23.1 22.7 22.4 22.1 21.9 21.7 21.5 21.2 21.0 20.7 20.5 20.3 20.1 20.1 60.5 58.9 39.0 27.9 26.7 26.6 27.3 27.3 26.4 25.2 24.5 24.0 23.5 23.0 22.6 22.3 22.1 21.8 21.6 21.4 21.1 20.8 20.5 20.3 20.2 20.1 90.6 80.3 45.0 32.5 34.8 31.1 28.7 31.7 31.9 27.4 25.2 24.6 24.0 23.4 23.0 22.7 22.3 22.1 21.8 21.5 21.2 20.9 20.6 20.3 20.2 20.1 103.8 109.1 75.8 64.1 68.9 50.4 40.5 61.5 62.8 36.9 26.9 25.4 24.6 24.0 23.5 23.1 22.7 22.3 22.0 21.6 21.3 20.9 20.6 20.4 20.2 20.1 112.7 138.1 119.7 134.5 158.6 124.9 95.9 123.8 111.6 52.7 33.1 26.8 25.4 24.7 24.0 23.4 22.9 22.4 22.0 21.6 21.2 20.9 20.6 20.3 20.2 20.1 113.6 154.0 151.5 198.5 249.0 227.1 202.2 179.2 115.5 51.5 34.6 27.6 26.0 25.1 24.2 23.6 22.9 22.4 22.0 21.6 21.2 20.8 20.5 20.3 20.2 20.1 120.2 156.4 143.2 174.4 207.2 189.1 184.1 160.9 94.0 39.4 29.9 27.2 25.8 24.9 24.2 23.6 22.9 22.4 22.0 21.6 21.2 20.8 20.5 20.3 20.2 20.1 120.9 143.7 129.8 119.4 103.4 82.1 79.4 97.2 78.5 37.4 28.6 26.5 25.1 24.3 23.8 23.3 22.8 22.4 22.0 21.6 21.2 20.9 20.6 20.3 20.2 20.1 101.3 130.7 127.9 94.9 59.4 47.4 46.1 54.6 48.9 33.3 27.5 25.5 24.4 23.8 23.3 22.9 22.6 22.2 21.9 21.6 21.2 20.9 20.6 20.3 20.2 20.1 62.7 100.1 107.5 79.1 47.2 34.3 33.4 33.2 29.5 27.1 25.5 24.3 23.7 23.2 22.8 22.5 22.2 21.9 21.7 21.4 21.1 20.8 20.5 20.3 20.2 20.1 20.0 20.0 20.0 20.0 20.0 20.0 20.0 20.0 20.0 20.1 20.1 20.0 20.0 20.0 20.0 20.0 20.1 20.1 20.1 20.1 20.1 20.1 20.1 20.1 20.2 20.2 20.1 20.1 20.1 20.1 20.1 20.1 20.1 20.1 20.1 20.1 20.1 20.1 20.1 20.1 20.1 20.1 20.1 20.1 20.1 20.2 20.2 20.2 20.2 20.2 20.2 20.2 20.1 20.1 20.1 20.1 20.2 20.1 20.1 20.2 20.2 20.2 20.2 20.2 20.2 20.2 20.2 20.2 20.3 20.3 20.3 20.3 20.3 20.3 20.3 20.3 20.2 20.1 20.2 20.2 20.2 20.2 20.3 20.2 20.2 20.3 20.3 20.4 20.4 20.4 20.3 20.4 20.4 20.4 20.4 20.4 20.4 20.4 20.4 20.4 20.4 20.3 20.2 20.1 20.3 20.4 20.4 20.4 20.4 20.4 20.4 20.5 20.5 20.6 20.6 20.5 20.5 20.5 20.5 20.6 20.6 20.6 20.5 20.5 20.5 20.4 20.4 20.3 20.2 20.1 20.5 20.5 20.5 20.6 20.6 20.6 20.6 20.7 20.8 20.8 20.8 20.7 20.7 20.7 20.7 20.7 20.6 20.6 20.6 20.5 20.5 20.5 20.4 20.3 20.2 20.1 20.6 20.7 20.7 20.8 20.8 20.8 20.8 20.9 21.0 21.0 20.9 20.8 20.8 20.8 20.8 20.7 20.7 20.7 20.6 20.6 20.6 20.5 20.5 20.3 20.2 20.1 20.7 20.8 20.9 20.9 21.0 21.0 21.1 21.2 21.2 21.2 21.1 21.0 20.9 20.9 20.9 20.8 20.8 20.7 20.7 20.6 20.6 20.6 20.5 20.3 20.2 20.1 20.9 21.0 21.1 21.1 21.2 21.2 21.3 21.4 21.4 21.3 21.2 21.1 21.0 21.0 20.9 20.9 20.8 20.8 20.7 20.7 20.7 20.6 20.5 20.3 20.2 20.1 21.0 21.1 21.2 21.3 21.3 21.4 21.5 21.6 21.6 21.5 21.3 21.2 21.2 21.1 21.1 21.0 20.9 20.9 20.8 20.8 20.7 20.6 20.5 20.3 20.2 20.1 21.1 21.2 21.3 21.4 21.5 21.7 21.8 21.9 21.8 21.7 21.5 21.4 21.3 21.3 21.2 21.1 21.0 21.0 20.9 20.8 20.8 20.7 20.5 20.3 20.1 20.1 21.2 21.4 21.5 21.6 21.8 22.0 22.1 22.2 22.1 21.9 21.7 21.6 21.5 21.4 21.3 21.2 21.1 21.0 21.0 20.9 20.8 20.7 20.5 20.3 20.1 20.1 21.4 21.6 21.7 21.9 22.1 22.3 22.5 22.6 22.4 22.2 22.0 21.8 21.7 21.6 21.5 21.4 21.2 21.1 21.1 21.0 20.9 20.7 20.5 20.3 20.1 20.1 21.5 21.7 21.9 22.2 22.5 22.9 23.1 23.1 22.8 22.5 22.3 22.1 22.0 21.8 21.6 21.5 21.4 21.2 21.1 21.0 20.9 20.7 20.5 20.3 20.1 20.1 21.8