<?xml version="1.0"?>
<VTKFile type="PolyData" version="1.0" byte_order="LittleEndian" header_type="UInt64">
<PolyData>
<Piece NumberOfPoints="4230" NumberOfVerts="0" NumberOfLines="0" NumberOfPolys="0">
    <Points>
        <DataArray type="Float32" NumberOfComponents="3" format="ascii">
        16.4384 9.8370 2.0732 17.1826 13.3957 0.3299 15.9740 10.0790 6.5062 15.6620 9.0795 3.7356 17.0278 13.0459 0.1626 15.2028 9.8378 4.1175 15.9758 9.4649 4.0498 15.9331 10.6155 1.1745 16.7757 11.8640 0.4219 16.6925 2.7953 5.6788 15.5497 6.4452 1.7742 19.9946 6.1792 3.2749 16.6439 9.3263 3.3639 16.8197 9.6418 2.3456 19.2470 10.2952 8.3940 19.4044 10.6780 8.3940 16.7251 9.5381 2.6816 17.3653 9.5119 3.0138 19.4244 14.7391 8.3940 18.0648 9.5597 8.3940 16.3457 4.9152 5.0921 19.9215 13.1503 8.3940 19.0026 14.8143 8.3940 17.4901 8.7111 5.6635 18.4506 10.0619 3.2262 18.4088 8.8531 2.7626 18.0218 9.2978 8.3940 18.6172 8.3219 3.3977 20.0303 12.5807 8.3940 19.7406 14.3638 8.3940 20.1049 12.4464 8.3940 20.0290 13.5515 8.3940 20.0395 13.5338 8.3940 19.8165 11.6418 8.3940 19.0619 10.2044 8.3940 19.7935 4.0226 4.7440 18.7460 10.3767 5.3419 15.1982 8.8823 2.7178 18.6091 9.9133 8.3940 16.7474 9.3505 8.3940 16.9839 9.2518 8.3940 18.1778 10.3556 4.9264 15.2405 9.7270 8.3940 19.5724 14.4415 8.3940 17.3833 7.3432 5.7432 17.8103 9.2649 8.3940 15.3758 9.4555 8.3940 15.2379 9.4426 8.3940 19.5731 10.7771 8.3940 16.4176 9.1482 8.3940 18.9643 10.0488 8.3940 17.8720 9.4229 8.3940 18.9270 10.4737 8.3940 20.0843 12.4258 8.3940 18.0501 9.4704 8.3940 15.7461 9.6068 8.3940 19.4941 11.2231 8.3940 16.0451 10.5218 1.1915 19.7031 13.2690 8.3940 16.0549 9.2088 8.3940 16.5626 9.2215 8.3940 19.3655 10.7164 8.3940 16.0811 11.8259 0.6324 19.3496 10.7750 8.3940 16.1972 10.0000 3.4393 15.0240 7.4686 4.1410 16.0773 11.6026 0.4936 19.6249 13.9564 8.3940 19.9192 13.0713 8.3940 15.4412 9.8142 8.3940 17.6506 9.5001 8.3940 19.4773 11.1148 8.3940 19.2131 10.6350 8.3940 16.4908 13.3391 0.8992 15.8796 12.5108 1.6844 15.1659 8.1575 4.1810 16.5792 3.7407 3.1404 19.0189 10.2606 8.3940 19.9332 12.0604 8.3940 19.8996 12.9318 8.3940 15.2084 11.9146 1.7545 18.7173 9.9535 8.3940 15.9181 12.5639 1.4761 15.7319 11.0634 0.6905 16.9510 9.6237 8.3940 17.3762 9.3187 8.3940 19.6038 12.4051 8.3940 19.3447 14.0125 8.3940 19.5505 13.5316 8.3940 15.8611 11.1798 0.6777 19.6041 12.3711 8.3940 15.2359 9.8857 8.3940 18.7831 14.5889 8.3940 19.4677 11.5839 8.3940 19.3591 14.3857 8.3940 18.0837 9.9201 8.3940 15.4170 9.0978 2.5651 19.1011 10.9511 8.3940 19.5170 11.3149 8.3940 16.4865 9.4568 8.3940 19.5846 12.2375 8.3940 19.2568 14.1579 8.3940 19.8065 12.6418 8.3940 19.8485 12.1860 8.3940 17.7292 9.5652 8.3940 17.6459 9.5171 8.3940 17.8427 9.8881 8.3940 19.4320 11.7140 8.3940 19.1924 10.7631 8.3940 19.5601 12.2583 8.3940 15.5344 9.5425 8.3940 19.1975 10.6991 8.3940 18.6046 14.5469 8.3940 19.3302 13.5575 8.3940 16.1007 9.4661 8.3940 19.0176 14.5200 8.3940 18.8443 14.5609 8.3940 19.5284 12.5294 8.3940 18.8771 10.7547 8.3940 19.7680 11.9571 8.3940 16.7901 9.5592 8.3940 19.6236 11.4765 8.3940 19.0698 14.5860 8.3940 19.4307 12.2166 8.3940 19.5644 13.6155 8.3940 19.5606 12.3018 8.3940 16.8839 9.4102 8.3940 19.5520 13.7655 8.3940 19.3937 13.6478 8.3940 19.2379 11.1302 8.3940 15.9117 9.5578 8.3940 19.0397 14.2113 8.3940 19.5812 12.2543 8.3940 18.2804 10.0768 8.3940 18.3509 10.1616 8.3940 19.3126 11.0171 8.3940 16.3957 4.4947 3.6649 16.7219 9.6965 8.3940 16.7304 9.3131 4.7906 19.4026 13.8602 8.3940 15.6457 9.9328 8.3940 19.1370 14.4470 8.3940 19.1080 10.9336 8.3940 19.0895 14.1712 8.3940 18.8899 10.8234 8.3940 16.8500 9.2309 2.9734 16.4139 9.8243 8.3940 19.4047 13.0882 8.3940 19.3634 12.6387 8.3940 18.1055 10.2019 8.3940 19.3020 11.7449 8.3940 15.6919 9.7987 8.3940 18.2621 10.2512 8.3940 19.3000 12.0613 8.3940 19.6392 12.5428 8.3940 19.2760 13.1963 8.3940 19.1450 13.9013 8.3940 18.9091 13.8680 8.3940 19.4319 12.3548 8.3940 19.4417 13.2095 8.3940 19.2384 13.4932 8.3940 18.9450 14.1136 8.3940 18.7320 14.4292 8.3940 15.8850 9.8250 8.3940 16.1863 9.9181 8.3940 18.7900 14.6910 8.3940 19.4028 12.4800 8.3940 16.7771 9.7305 8.3940 18.8020 10.6370 8.3940 17.5729 10.2484 2.1438 19.5081 11.7534 8.3940 19.5197 11.6924 8.3940 18.3077 10.1181 8.3940 19.1113 11.1086 8.3940 18.7983 14.3916 8.3940 18.2865 10.0627 8.3940 17.4681 9.8623 8.3940 15.8863 9.7761 8.3940 19.2134 14.2888 8.3940 16.5399 5.4251 1.7326 18.6248 14.5223 8.3940 18.9281 10.8977 8.3940 19.3801 11.2016 8.3940 17.4012 10.0000 1.2456 17.8809 9.7287 8.3940 15.1284 10.1371 8.3940 18.9593 10.8895 8.3940 19.6511 12.2408 8.3940 19.3645 11.4892 8.3940 18.9109 14.4161 8.3940 18.5125 10.5378 8.3940 19.4227 12.6649 8.3940 18.7848 10.7185 8.3940 19.6129 12.3911 8.3940 15.4059 9.7146 8.3940 16.5619 9.8363 8.3940 19.3605 11.9432 8.3940 17.6370 10.3144 1.7374 17.5028 9.8481 8.3940 19.3690 12.3361 8.3940 17.3485 9.6286 8.3940 19.0701 13.8650 8.3940 18.5662 10.6894 8.3940 19.3823 12.3105 8.3940 18.2948 14.6408 8.3940 19.3935 11.6956 8.3940 15.2645 10.0791 8.3940 17.5999 10.1120 8.3940 19.1511 13.9719 8.3940 15.5513 9.8898 8.3940 15.3596 10.2069 8.3940 18.9276 14.2329 8.3940 18.8462 13.9975 8.3940 17.4949 9.8632 3.2492 17.1794 9.9045 8.3940 18.7363 10.6583 8.3940 15.9076 7.8733 5.4059 17.2648 9.4011 2.1905 17.4402 9.6713 4.2270 18.6024 10.5063 8.3940 18.6563 14.2664 8.3940 18.5538 14.2564 8.3940 18.5645 10.4424 8.3940 15.2070 14.6894 8.3940 19.3414 12.7888 8.3940 17.5867 5.7249 4.0585 15.6713 10.1804 8.3940 19.3210 12.2748 8.3940 19.2007 13.5325 8.3940 18.2261 14.5746 8.3940 17.7643 10.0000 2.4675 15.6568 9.8555 8.3940 18.4263 10.3015 8.3940 19.2073 13.6414 8.3940 16.4884 5.8112 3.5399 19.4073 12.5123 8.3940 18.8956 11.3120 8.3940 18.7149 11.2204 8.3940 18.9735 14.0949 8.3940 18.4837 14.2412 8.3940 19.1867 11.2207 8.3940 19.5364 12.2998 8.3940 17.0400 9.3839 1.3406 16.4875 9.8674 8.3940 18.0880 10.6194 8.3940 18.4167 10.6169 8.3940 19.2663 11.5779 8.3940 18.9932 13.6745 8.3940 17.1436 10.1319 8.3940 16.5177 9.8706 8.3940 18.8321 11.2250 8.3940 18.5219 14.2310 8.3940 15.9325 10.0545 8.3940 18.6835 14.4123 8.3940 18.9996 11.7213 8.3940 17.6892 10.3605 8.3940 19.2555 13.4892 8.3940 16.5044 9.9054 8.3940 18.5196 14.2224 8.3940 16.8980 9.7762 8.3940 19.3453 12.7439 8.3940 16.0406 10.1590 8.3940 19.0678 13.8078 8.3940 15.8276 9.9811 8.3940 19.1986 11.3893 8.3940 16.5417 10.0999 8.3940 18.4624 14.4447 8.3940 16.5343 10.0609 8.3940 18.3563 10.2921 8.3940 19.3963 12.5392 8.3940 15.7692 10.1874 8.3940 19.2172 13.4337 8.3940 17.5731 6.2976 2.3848 18.5024 10.7155 8.3940 19.2874 13.7241 8.3940 15.8919 9.8207 8.3940 18.4622 10.7408 8.3940 18.9601 13.9929 8.3940 19.0841 11.5036 8.3940 18.5637 10.3445 8.3940 19.3064 12.3416 8.3940 17.7532 10.0150 8.3940 16.9459 9.8945 8.3940 17.2746 8.1531 1.2290 19.2984 13.1283 8.3940 15.9737 9.8061 8.3940 19.1139 11.9932 8.3940 19.4477 13.1008 8.3940 18.8629 14.3580 8.3940 17.6219 9.9301 2.0204 16.7059 9.8135 8.3940 17.5436 10.1310 8.3940 16.3256 9.6902 8.3940 17.9959 10.3669 8.3940 17.4063 10.1175 8.3940 19.0801 11.8383 8.3940 16.5334 10.0628 8.3940 18.6882 14.3921 8.3940 18.0235 10.4527 8.3940 18.7787 14.0683 8.3940 19.1436 11.7759 8.3940 18.9740 13.7824 8.3940 18.5780 14.6259 8.3940 18.8283 14.0829 8.3940 19.1804 11.5072 8.3940 16.7141 9.7681 8.3940 16.8586 10.0674 8.3940 16.1648 9.9859 8.3940 18.9969 11.4003 8.3940 18.5998 14.3368 8.3940 18.7014 13.8325 8.3940 19.4294 13.0454 8.3940 15.7213 10.2106 8.3940 17.2048 9.9093 8.3940 15.5909 10.0029 8.3940 16.0292 5.8397 1.2116 19.3888 12.5878 8.3940 19.1475 11.4067 8.3940 15.9330 10.0525 8.3940 18.9972 13.5046 8.3940 18.9087 13.8615 8.3940 19.4443 12.2852 8.3940 18.8325 11.1956 8.3940 18.2885 10.6520 8.3940 16.6911 9.8134 8.3940 19.3338 12.5240 8.3940 15.3816 6.2059 5.4836 18.3348 14.7514 8.3940 19.2256 12.0720 8.3940 17.1020 10.0072 8.3940 16.4221 9.9098 8.3940 19.0303 12.8888 8.3940 17.7737 10.0497 8.3940 18.9304 12.6019 8.3940 19.2283 12.3638 8.3940 18.9805 14.0265 8.3940 18.7512 14.1006 8.3940 19.1131 12.6651 8.3940 18.4937 14.2694 8.3940 17.8914 10.1709 8.3940 15.4757 14.6341 8.3940 18.7962 11.5127 8.3940 17.4560 10.2734 8.3940 18.2157 14.8053 8.3940 15.2634 7.0808 0.7567 18.1386 7.7302 1.5534 17.9900 6.5093 2.3197 19.0329 11.5405 8.3940 18.2534 14.4667 8.3940 18.3151 10.6478 8.3940 15.0269 6.7174 1.3274 18.7984 11.6943 8.3940 15.7367 10.2837 8.3940 17.3801 10.3050 8.3940 15.1577 14.7779 8.3940 15.1494 10.4114 8.3940 19.1953 12.7651 8.3940 18.1699 14.3754 8.3940 18.4511 14.3186 8.3940 17.4061 10.1107 8.3940 16.3713 9.8921 8.3940 17.6450 10.1883 8.3940 19.2215 13.1325 8.3940 16.2225 9.9486 8.3940 15.4163 10.5181 8.3940 16.6312 10.0074 8.3940 17.4878 10.1590 8.3940 15.9619 10.2400 8.3940 15.3689 10.1168 8.3940 15.8529 14.7897 8.3940 18.7121 10.3742 2.4951 15.2030 10.2996 8.3940 17.2192 10.2386 8.3940 19.2093 12.7619 8.3940 19.2967 12.8706 8.3940 17.1692 10.2658 8.3940 18.9773 12.9675 8.3940 18.2683 14.3766 8.3940 18.7720 10.4243 2.4351 19.2363 12.1294 8.3940 19.1028 13.1419 8.3940 15.1303 10.4480 8.3940 19.0401 12.3690 8.3940 15.3849 14.4677 8.3940 17.0119 9.8396 8.3940 17.5546 10.0137 8.3940 16.6107 10.0595 8.3940 17.0380 5.3943 2.3345 18.8428 13.5996 8.3940 15.8054 10.0739 8.3940 18.3126 10.8399 8.3940 18.6804 10.9917 8.3940 15.1990 5.0838 3.7904 18.3959 10.9742 8.3940 17.9147 10.3440 8.3940 18.1510 14.7644 8.3940 19.1152 12.1592 8.3940 16.8203 10.1758 8.3940 18.5720 13.8855 8.3940 18.3096 14.5104 8.3940 18.4481 14.1208 8.3940 17.9163 10.6059 8.3940 15.3438 10.4472 8.3940 17.4714 10.0724 8.3940 19.0436 13.4530 8.3940 15.2983 10.2601 8.3940 16.6187 10.0960 8.3940 18.8100 11.3031 8.3940 19.3496 12.4561 8.3940 17.8316 10.2123 8.3940 17.4857 14.8079 8.3940 15.2096 10.5791 8.3940 18.4513 14.1270 8.3940 18.3973 11.0267 8.3940 15.8111 10.3112 8.3940 16.2012 10.1496 8.3940 18.4350 14.5380 8.3940 18.8077 13.6857 8.3940 18.9447 11.4078 8.3940 18.0770 14.4407 8.3940 17.3180 10.0600 8.3940 18.9410 12.3833 8.3940 18.0928 10.4202 8.3940 16.3069 10.1952 8.3940 17.5963 10.2876 8.3940 17.3125 10.0050 8.3940 19.1074 
[...]
    <PointData>
        <DataArray type="Float32" Name="tag" format="ascii">
            10611.0000 12211.0000 12631.0000 14587.0000 28435.0000 29691.0000 30607.0000 33571.0000 33583.0000 39383.0000 39535.0000 66299.0000 47311.0000 48039.0000 48363.0000 50039.0000 50047.0000 50735.0000 53539.0000 55283.0000 56307.0000 57183.0000 58003.0000 58471.0000 59927.0000 60495.0000 60563.0000 62419.0000 62951.0000 63815.0000 63927.0000 64587.0000 65551.0000 66439.0000 66479.0000 66523.0000 72203.0000 86623.0000 67267.0000 69479.0000 69491.0000 69651.0000 70879.0000 70911.0000 72047.0000 73115.0000 74755.0000 74783.0000 74839.0000 75595.0000 75631.0000 75651.0000 75683.0000 75719.0000 77315.0000 77351.0000 77451.0000 77663.0000 79911.0000 79999.0000 80831.0000 81759.0000 82583.0000 83415.0000 84667.0000 84695.0000 84863.0000 85127.0000 85171.0000 85227.0000 85959.0000 86047.0000 86067.0000 91603.0000 89335.0000 92939.0000 102899.0000 86895.0000 86915.0000 86999.0000 87707.0000 87807.0000 87995.0000 89155.0000 89475.0000 90231.0000 90363.0000 90915.0000 90963.0000 91279.0000 91823.0000 91843.0000 92415.0000 93203.0000 93219.0000 93343.0000 93455.0000 93983.0000 94103.0000 94623.0000 95307.0000 95419.0000 97871.0000 97887.0000 97919.0000 97923.0000 97939.0000 98015.0000 98019.0000 100295.0000 100303.0000 100319.0000 100331.0000 100383.0000 101083.0000 101127.0000 101167.0000 101279.0000 101991.0000 102159.0000 102287.0000 102335.0000 103039.0000 103075.0000 104007.0000 104159.0000 104183.0000 104903.0000 104923.0000 104979.0000 105639.0000 105775.0000 106419.0000 106487.0000 106531.0000 106683.0000 106723.0000 120615.0000 116047.0000 119071.0000 112803.0000 111103.0000 120519.0000 123519.0000 124311.0000 118167.0000 115931.0000 119699.0000 114371.0000 120467.0000 110191.0000 123451.0000 112655.0000 117423.0000 119647.0000 116519.0000 121143.0000 124231.0000 119615.0000 114323.0000 118859.0000 112591.0000 112587.0000 115831.0000 118847.0000 114291.0000 118039.0000 126603.0000 118835.0000 109327.0000 118011.0000 122615.0000 125743.0000 107295.0000 107391.0000 107483.0000 108099.0000 108195.0000 108231.0000 108459.0000 109035.0000 109983.0000 110759.0000 110803.0000 110831.0000 110899.0000 110903.0000 111475.0000 111515.0000 111623.0000 111655.0000 113155.0000 113419.0000 113447.0000 114915.0000 114943.0000 117167.0000 117855.0000 118591.0000 120111.0000 120251.0000 121031.0000 121611.0000 121651.0000 122539.0000 123099.0000 123203.0000 123219.0000 123227.0000 124043.0000 124659.0000 124799.0000 124823.0000 125439.0000 125547.0000 126351.0000 126479.0000 136687.0000 130987.0000 129239.0000 129223.0000 130079.0000 140543.0000 129151.0000 129147.0000 130015.0000 128347.0000 128339.0000 136319.0000 134455.0000 132687.0000 134423.0000 134395.0000 141259.0000 137295.0000 143831.0000 146619.0000 146611.0000 129943.0000 143815.0000 135259.0000 131651.0000 129919.0000 130631.0000 145639.0000 139651.0000 142919.0000 145607.0000 146567.0000 140379.0000 131583.0000 142891.0000 143731.0000 129859.0000 145547.0000 142859.0000 132507.0000 142823.0000 135139.0000 139583.0000 146515.0000 140307.0000 145475.0000 142775.0000 127299.0000 141115.0000 140303.0000 136147.0000 136143.0000 142003.0000 136135.0000 144575.0000 133359.0000 144551.0000 127103.0000 127123.0000 128059.0000 128067.0000 128115.0000 128847.0000 129623.0000 129799.0000 130475.0000 131391.0000 131415.0000 132207.0000 132307.0000 132423.0000 132439.0000 133063.0000 133111.0000 133123.0000 133211.0000 134147.0000 134151.0000 134899.0000 134927.0000 134947.0000 135787.0000 135839.0000 136003.0000 136027.0000 136055.0000 136103.0000 136755.0000 136943.0000 137687.0000 137691.0000 137771.0000 137843.0000 137867.0000 137975.0000 138683.0000 138711.0000 138787.0000 138839.0000 139395.0000 139491.0000 140147.0000 140171.0000 140879.0000 140919.0000 141047.0000 141631.0000 141659.0000 141715.0000 141775.0000 141819.0000 141823.0000 141867.0000 142691.0000 143455.0000 143639.0000 144259.0000 144415.0000 144479.0000 145187.0000 145287.0000 145295.0000 146147.0000 146191.0000 146207.0000 146247.0000 146251.0000 154407.0000 147819.0000 150499.0000 148495.0000 151211.0000 152203.0000 151171.0000 155915.0000 149359.0000 149355.0000 151151.0000 155899.0000 158735.0000 158719.0000 150235.0000 150227.0000 151103.0000 160563.0000 154891.0000 156843.0000 150207.0000 153015.0000 157683.0000 160535.0000 147339.0000 148327.0000 164215.0000 149227.0000 154871.0000 152995.0000 152103.0000 160507.0000 152099.0000 154863.0000 162339.0000 147143.0000 147211.0000 147223.0000 147235.0000 147239.0000 147283.0000 147287.0000 147983.0000 148067.0000 148275.0000 148867.0000 149087.0000 149103.0000 149179.0000 149903.0000 149991.0000 150019.0000 150079.0000 150911.0000 150935.0000 150975.0000 150999.0000 151003.0000 151699.0000 151723.0000 151823.0000 151839.0000 151971.0000 151999.0000 152039.0000 152087.0000 152599.0000 152795.0000 152867.0000 152891.0000 152895.0000 152971.0000 152975.0000 153535.0000 153651.0000 153831.0000 153943.0000 153959.0000 154519.0000 154587.0000 154719.0000 154743.0000 154819.0000 155431.0000 155447.0000 155675.0000 156587.0000 156607.0000 156711.0000 156799.0000 157287.0000 157319.0000 157447.0000 157579.0000 158259.0000 158655.0000 159143.0000 159303.0000 159331.0000 159371.0000 159395.0000 159435.0000 159503.0000 159531.0000 159559.0000 160111.0000 160151.0000 160207.0000 160311.0000 160395.0000 160411.0000 160459.0000 161107.0000 161163.0000 161195.0000 161211.0000 161219.0000 161387.0000 161439.0000 162987.0000 163031.0000 163147.0000 163203.0000 163315.0000 163395.0000 163787.0000 163875.0000 164127.0000 164767.0000 164939.0000 165067.0000 165099.0000 165167.0000 165299.0000 165771.0000 166679.0000 166791.0000 166859.0000 166903.0000 167059.0000 167803.0000 168935.0000 170199.0000 170207.0000 170211.0000 170227.0000 170383.0000 170571.0000 171811.0000 171823.0000 171967.0000 171983.0000 172083.0000 172103.0000 172107.0000 172111.0000 172115.0000 172163.0000 172639.0000 201727.0000 207371.0000 183111.0000 204651.0000 204291.0000 208763.0000 206099.0000 210279.0000 213335.0000 183019.0000 204531.0000 203075.0000 174731.0000 200131.0000 198235.0000 201107.0000 181263.0000 205627.0000 208539.0000 173587.0000 173907.0000 175163.0000 175171.0000 175259.0000 175351.0000 175407.0000 175455.0000 213507.0000 176787.0000 176947.0000 177095.0000 178423.0000 178743.0000 179495.0000 180083.0000 180247.0000 180295.0000 180339.0000 180455.0000 180931.0000 181819.0000 183371.0000 183383.0000 183435.0000 183627.0000 183687.0000 183783.0000 185003.0000 185303.0000 185351.0000 185375.0000 185483.0000 187471.0000 188391.0000 188527.0000 188583.0000 188643.0000 188819.0000 189299.0000 189935.0000 189967.0000 190083.0000 190267.0000 190291.0000 190355.0000 190359.0000 191487.0000 191523.0000 191579.0000 191771.0000 191807.0000 191935.0000 191955.0000 193007.0000 193043.0000 193091.0000 193147.0000 193155.0000 193263.0000 193271.0000 193275.0000 193339.0000 193371.0000 193399.0000 193403.0000 194395.0000 194747.0000 194831.0000 194871.0000 195859.0000 195887.0000 195919.0000 196071.0000 196263.0000 197447.0000 197491.0000 197591.0000 197687.0000 198991.0000 199051.0000 199083.0000 199227.0000 199395.0000 200303.0000 200451.0000 200519.0000 200547.0000 200635.0000 200643.0000 201771.0000 201823.0000 202055.0000 202111.0000 202163.0000 202219.0000 202283.0000 203267.0000 203371.0000 203479.0000 203495.0000 203879.0000 204867.0000 204895.0000 204927.0000 204983.0000 205391.0000 205407.0000 206419.0000 206503.0000 206603.0000 206643.0000 206651.0000 206655.0000 207767.0000 207811.0000 207971.0000 208159.0000 209291.0000 209367.0000 209415.0000 209539.0000 209543.0000 209551.0000 210023.0000 210027.0000 210671.0000 210683.0000 210735.0000 210739.0000 210815.0000 210827.0000 211027.0000 212251.0000 212363.0000 212367.0000 212387.0000 212399.0000 212419.0000 212439.0000 212519.0000 212567.0000 212959.0000 222627.0000 247639.0000 247631.0000 238807.0000 243011.0000 232631.0000 239859.0000 252211.0000 232587.0000 249455.0000 250595.0000 235695.0000 234275.0000 215083.0000 249431.0000 238455.0000 226639.0000 234511.0000 239707.0000 232863.0000 247303.0000 235579.0000 241199.0000 235863.0000 231267.0000 246319.0000 232775.0000 243083.0000 238595.0000 249179.0000 213811.0000 213843.0000 214171.0000 214835.0000 215391.0000 215499.0000 215627.0000 216887.0000 216943.0000 216999.0000 217011.0000 217147.0000 217187.0000 217803.0000 218559.0000 219739.0000 219947.0000 220123.0000 220151.0000 221367.0000 221443.0000 221527.0000 221647.0000 222971.0000 223047.0000 223159.0000 224103.0000 224163.0000 224359.0000 224447.0000 224459.0000 225551.0000 225591.0000 225631.0000 225771.0000 225823.0000 225847.0000 225899.0000 225939.0000 226979.0000 227119.0000 227183.0000 227195.0000 227203.0000 227247.0000 227303.0000 228455.0000 228471.0000 228499.0000 228527.0000 228979.0000 229083.0000 229887.0000 229967.0000 230195.0000 230211.0000 230247.0000 230283.0000 231495.0000 231571.0000 231671.0000 231687.0000 231695.0000 231807.0000 233055.0000 233063.0000 233163.0000 233291.0000 233379.0000 233551.0000 233587.0000 234727.0000 234803.0000 234947.0000 234975.0000 235263.0000 236095.0000 236215.0000 236267.0000 236391.0000 237771.0000 237807.0000 237843.0000 238875.0000 238951.0000 238999.0000 239119.0000 239187.0000 239199.0000 240307.0000 240551.0000 240555.0000 240667.0000 241091.0000 241823.0000 241859.0000 241955.0000 242099.0000 242131.0000 242531.0000 242707.0000 243531.0000 243675.0000 243719.0000 244927.0000 244959.0000 245227.0000 245815.0000 246463.0000 246615.0000 246647.0000 246703.0000 246763.0000 248067.0000 248139.0000 248203.0000 248551.0000 249607.0000 249643.0000 249755.0000 249979.0000 251191.0000 251327.0000 251875.0000 262367.0000 284463.0000 265159.0000 274555.0000 267067.0000 258539.0000 267059.0000 258915.0000 256723.0000 253723.0000 265059.0000 257187.0000 288135.0000 287463.0000 263487.0000 265019.0000 265643.0000 274435.0000 283743.0000 285559.0000 276883.0000 291879.0000 274999.0000 269419.0000 260183.0000 288083.0000 291103.0000 273107.0000 256615.0000 261627.0000 284327.0000 253603.0000 274355.0000 287303.0000 291051.0000 260127.0000 291003.0000 279963.0000 271183.0000 276163.0000 269363.0000 287211.0000 261547.0000 263863.0000 279923.0000 285367.0000 272443.0000 273023.0000 260515.0000 253955.0000 258703.0000 269227.0000 269191.0000 260395.0000 267283.0000 278611.0000 272927.0000 258611.0000 290919.0000 269151.0000 265279.0000 287115.0000 287931.0000 278523.0000 289803.0000 280371.0000 278491.0000 276535.0000 280331.0000 280323.0000 276503.0000 282051.0000 272787.0000 289627.0000 287727.0000 289531.0000 252667.0000 252687.0000 252987.0000 254299.0000 254455.0000 254547.0000 254563.0000 254599.0000 255783.0000 255851.0000 255863.0000 255903.0000 255999.0000 256199.0000 256355.0000 257367.0000 257491.0000 257551.0000 257559.0000 257843.0000 259003.0000 259163.0000 259235.0000 259263.0000 259347.0000 260751.0000 260835.0000 260851.0000 260899.0000 261003.0000 262571.0000 262627.0000 262847.0000 262915.0000 262947.0000 262979.0000 264163.0000 264363.0000 264411.0000 264539.0000 265783.0000 265787.0000 265823.0000 265871.0000 266331.0000 266375.0000 266403.0000 266703.0000 267659.0000 267851.0000 267927.0000 268003.0000 268103.0000 268235.0000 268243.0000 269619.0000 269791.0000 269835.0000 269927.0000 270007.0000 270055.0000 270151.0000 270195.0000 270247.0000 270491.0000 271567.0000 271671.0000 271799.0000 271963.0000 271995.0000 273271.0000 273383.0000 273407.0000 273443.0000 273447.0000 273603.0000 273643.0000 273835.0000 273867.0000 275267.0000 275395.0000 275431.0000 275539.0000 275571.0000 275903.0000 275995.0000 277223.0000 277371.0000 277767.0000 277787.0000 278947.0000 278959.0000 279155.0000 279179.0000 279183.0000 279243.0000 279327.0000 279335.0000 279467.0000 279487.0000 279591.0000 279759.0000 281123.0000 281379.0000 281475.0000 282827.0000 282951.0000 283155.0000 283195.0000 284539.0000 284691.0000 284703.0000 284859.0000 284947.0000 285043.0000 285059.0000 285287.0000 286391.0000 286683.0000 286807.0000 286823.0000 287047.0000 288271.0000 288403.0000 288523.0000 288563.0000 288587.0000 288659.0000 288887.0000 290383.0000 290627.0000 290643.0000 290899.0000 306939.0000 304423.0000 325963.0000 295043.0000 304403.0000 326863.0000 325431.0000 332707.0000 332703.0000 329775.0000 326843.0000 331759.0000 332691.0000 326827.0000 323067.0000 299391.0000 321019.0000 331159.0000 325403.0000 316459.0000 332671.0000 332651.0000 308251.0000 309807.0000 326787.0000 293083.0000 326779.0000 332639.0000 313035.0000 332603.0000 302351.0000 308203.0000 296739.0000 331083.0000 296731.0000 320107.0000 331063.0000 321539.0000 306015.0000 321535.0000 329607.0000 308147.0000 328255.0000 322491.0000 305991.0000 303011.0000 316327.0000 305975.0000 328239.0000 314775.0000 316299.0000 305955.0000 325879.0000 321515.0000 300387.0000 329547.0000 325211.0000 320087.0000 312943.0000 294731.0000 329515.0000 296611.0000 323007.0000 320871.0000 294699.0000 304823.0000 333111.0000 308035.0000 311323.0000 330155.0000 319499.0000 322423.0000 305883.0000 315231.0000 305871.0000 325115.0000 320815.0000 327287.0000 324347.0000 328163.0000 325103.0000 329427.0000 292783.0000 301103.0000 311947.0000 325795.0000 302119.0000 304751.0000 328155.0000 312839.0000 310251.0000 293511.0000 325779.0000 295311.0000 302859.0000 310235.0000 321407.0000 302851.0000 308631.0000 323751.0000 313539.0000 293443.0000 293411.0000 306547.0000 308603.0000 321363.0000 302747.0000 328135.0000 323743.0000 323735.0000 332975.0000 295119.0000 306475.0000 304579.0000 308547.0000 310123.0000 319991.0000 300723.0000 313379.0000 302579.0000 310047.0000 321287.0000 313303.0000 313295.0000 309971.0000 309943.0000 319887.0000 318323.0000 329939.0000 325603.0000 332875.0000 325559.0000 332867.0000 324091.0000 328427.0000 329815.0000 331243.0000 292011.0000 292159.0000 292443.0000 292447.0000 292567.0000 292715.0000 293895.0000 294147.0000 294259.0000 294335.0000 294383.0000 296219.0000 296331.0000 296371.0000 296447.0000 298031.0000 298067.0000 298191.0000 298231.0000 298275.0000 299895.0000 299919.0000 299975.0000 300043.0000 300051.0000 301667.0000 301747.0000 301807.0000 303251.0000 303291.0000 303463.0000 303495.0000 303651.0000 303915.0000 305383.0000 305543.0000 305659.0000 305679.0000 305807.0000 307111.0000 307171.0000 307299.0000 307411.0000 307535.0000 307651.0000 307755.0000 307787.0000 307803.0000 308915.0000 308967.0000 309215.0000 309243.0000 309279.0000 309427.0000 309511.0000 309523.0000 309575.0000 310803.0000 310835.0000 311119.0000 311123.0000 311127.0000 311179.0000 312467.0000 314167.0000 314483.0000 314503.0000 315959.0000 316107.0000 316127.0000 317283.0000 317295.0000 317383.0000 317539.0000 317543.0000 317663.0000 317687.0000 317735.0000 317863.0000 319199.0000 319259.0000 321743.0000 321919.0000 321987.0000 322067.0000 322207.0000 323315.0000 323451.0000 323515.0000 323643.0000 323651.0000 324567.0000 324579.0000 324743.0000 324755.0000 324903.0000 324951.0000 325039.0000 326091.0000 326111.0000 326163.0000 326287.0000 326303.0000 326491.0000 327667.0000 327767.0000 327791.0000 327999.0000 328067.0000 329075.0000 329243.0000 329263.0000 330407.0000 330555.0000 330659.0000 330703.0000 330767.0000 331955.0000 332003.0000 332215.0000 340639.0000 367171.0000 361927.0000 354139.0000 337587.0000 347959.0000 349999.0000 372563.0000 367115.0000 355359.0000 352763.0000 335615.0000 364791.0000 366455.0000 343175.0000 352251.0000 359815.0000 347947.0000 359811.0000 358591.0000 339943.0000 358579.0000 370099.0000 353639.0000 350899.0000 358563.0000 338355.0000 349467.0000 352219.0000 339923.0000 353619.0000 361303.0000 361299.0000 361295.0000 349443.0000 370067.0000 370063.0000 334087.0000 338331.0000 339891.0000 364703.0000 352191.0000 341511.0000 359751.0000 357379.0000 338991.0000 343091.0000 364671.0000 370031.0000 353555.0000 334611.0000 349947.0000 366339.0000 338307.0000 343075.0000 364635.0000 353531.0000 334031.0000 364607.0000 341475.0000 359687.0000 369983.0000 341471.0000 334015.0000 344695.0000 356559.0000 366307.0000 352695.0000 334595.0000 343051.0000 340547.0000 352087.0000 339811.0000 371859.0000 368183.0000 361191.0000 362831.0000 350807.0000 356083.0000 368163.0000 362787.0000 333975.0000 340523.0000 352043.0000 333967.0000 350799.0000 359655.0000 344631.0000 368135.0000 362771.0000 335487.0000 361163.0000 366271.0000 336915.0000 345339.0000 352035.0000 342959.0000 352011.0000 341387.0000 344599.0000 371783.0000 357271.0000 348499.0000 353447.0000 366235.0000 366223.0000 334559.0000 341371.0000 363391.0000 351987.0000 368083.0000 344567.0000 368079.0000 356043.0000 351979.0000 358375.0000 353431.0000 336867.0000 357247.0000 369855.0000 366203.0000 365243.0000 336847.0000 354659.0000 339711.0000 333919.0000 338159.0000 351951.0000 358347.0000 337467.0000 364443.0000 362695.0000 357227.0000 354615.0000 344511.0000 342095.0000 358331.0000 366151.0000 355247.0000 355995.0000 353367.0000 348471.0000 346087.0000 349303.0000 364395.0000 353351.0000 366135.0000 365215.0000 362643.0000 368827.0000 351871.0000 344475.0000 358307.0000 369767.0000 366119.0000 371683.0000 362631.0000 337455.0000 337451.0000 360211.0000 342067.0000 344443.0000 339591.0000 364319.0000 333863.0000 364315.0000 369727.0000 366075.0000 335939.0000 347699.0000 341255.0000 349243.0000 335931.0000 355927.0000 364307.0000 339571.0000 339563.0000 347671.0000 343579.0000 355911.0000 367947.0000 364291.0000 350579.0000 351807.0000 355899.0000 355895.0000 345215.0000 351231.0000 351799.0000 335311.0000 334491.0000 360167.0000 335299.0000 339511.0000 372271.0000 353275.0000 348339.0000 350535.0000 372251.0000 353895.0000 341955.0000 342743.0000 351767.0000 371587.0000 334439.0000 358799.0000 347635.0000 351183.0000 353263.0000 370431.0000 341915.0000 371571.0000 337331.0000 354479.0000 349731.0000 337307.0000 335279.0000 363171.0000 338667.0000 337295.0000 335275.0000 347623.0000 350491.0000 358787.0000 367823.0000 356327.0000 351119.0000 355099.0000 355095.0000 345059.0000 358767.0000 352463.0000 351095.0000 349675.0000 345027.0000 340183.0000 345019.0000 341759.0000 343383.0000 346579.0000 346575.0000 335723.0000 344991.0000 344987.0000 363127.0000 366715.0000 343339.0000 344971.0000 340127.0000 337147.0000 338487.0000 366695.0000 372143.0000 337087.0000 371551.0000 340047.0000 348107.0000 357547.0000 348083.0000 353751.0000 346483.0000 341555.0000 346463.0000 366671.0000 346455.0000 346447.0000 353735.0000 344843.0000 346423.0000 353711.0000 358663.0000 353679.0000 363055.0000 354907.0000 359911.0000 361439.0000 361435.0000 364883.0000 361371.0000 372063.0000 368351.0000 368339.0000 370183.0000 333403.0000 333547.0000 334747.0000 334779.0000 334827.0000 334867.0000 334987.0000 335107.0000 336439.0000 337651.0000 337763.0000 337791.0000 337799.0000 337835.0000 337939.0000 337943.0000 341071.0000 342267.0000 342571.0000 343911.0000 344091.0000 344103.0000 344143.0000 345499.0000 345583.0000 345707.0000 345795.0000 345879.0000 347111.0000 347191.0000 347267.0000 347383.0000 347431.0000 347443.0000 347459.0000 349047.0000 349051.0000 350027.0000 350259.0000 350275.0000 350331.0000 350359.0000 350363.0000 351471.0000 351559.0000 351615.0000 351635.0000 352963.0000 353091.0000 354311.0000 355579.0000 356627.0000 356735.0000 356775.0000 357043.0000 357927.0000 358031.0000 358067.0000 358187.0000 359087.0000 359255.0000 360447.0000 360459.0000 360727.0000 361983.0000 362403.0000 362475.0000 364183.0000 365451.0000 365459.0000 365643.0000 365731.0000 365783.0000 365831.0000 365855.0000 365867.0000 365891.0000 367323.0000 367439.0000 367759.0000 367803.0000 369071.0000 369087.0000 369327.0000 369403.0000 369547.0000 370815.0000 370951.0000 371103.0000 371111.0000 371127.0000 371167.0000 371175.0000 371367.0000 376223.0000 374395.0000 409443.0000 377351.0000 390995.0000 377339.0000 3