<?xml version="1.0"?>
<VTKFile type="PolyData" version="1.0" byte_order="LittleEndian" header_type="UInt64">
<PolyData>
<Piece NumberOfPoints="520" NumberOfVerts="0" NumberOfLines="0" NumberOfPolys="0">
    <Points>
        <DataArray type="Float32" NumberOfComponents="3" format="ascii">
        14.8258 8.4955 4.1016 14.4877 8.2542 4.4945 13.7933 11.2184 6.9086 13.9835 7.8423 6.6512 14.7044 3.6593 7.4063 7.1745 8.5896 6.1541 13.8519 5.9859 4.0791 14.9459 6.2615 5.2305 12.9449 8.9043 4.3757 14.0424 9.5061 1.8754 14.3303 11.6153 2.2339 14.7113 3.8719 5.9775 13.8193 8.5051 2.1498 14.1643 12.9548 4.6721 13.8569 8.2273 2.3788 12.0817 7.4656 6.3286 11.3226 9.2672 6.3062 11.9569 9.2675 5.7256 13.7142 11.3727 3.4236 13.1908 7.6606 3.9187 13.1407 5.0532 5.3536 13.7933 4.7711 4.7478 12.2616 6.7794 5.7575 13.9709 8.7579 1.8414 14.5456 7.8366 1.6901 14.5970 6.9669 2.0394 13.8323 5.3362 3.6723 14.1597 8.3447 2.0992 14.3691 6.0682 2.1569 14.0384 5.9074 4.7813 14.5258 8.3788 1.6411 14.4381 5.8898 2.9242 12.8627 12.1350 7.1810 14.1752 7.0979 4.2362 14.1603 5.5470 5.4401 14.3630 6.9582 4.2358 14.5286 6.0848 4.6705 13.1217 12.4748 8.3940 13.1939 11.6496 8.3940 14.3417 3.0791 4.4559 14.5038 3.6803 3.9870 13.2988 11.5743 8.3940 13.3300 13.2047 8.3940 13.3203 12.5004 8.3940 14.7988 8.2866 3.2424 14.6178 5.7177 4.7517 13.3839 12.4323 8.3940 13.6828 0.9402 6.5653 14.6906 7.6046 3.7197 13.3080 12.3700 8.3940 13.5611 12.6154 8.3940 13.7439 11.2512 8.3940 13.5420 11.9535 8.3940 13.4854 13.0716 8.3940 13.4809 12.2174 8.3940 13.5893 13.4909 8.3940 13.5923 11.4945 8.3940 13.7002 11.4630 8.3940 13.6262 13.3192 8.3940 13.6560 12.7615 8.3940 13.7304 12.7722 8.3940 13.7981 12.9942 8.3940 13.7330 12.2877 8.3940 13.9134 10.6663 8.3940 13.6187 12.5491 8.3940 13.9008 10.8739 8.3940 13.8097 14.1165 8.3940 13.7036 12.7189 8.3940 13.7815 11.5416 8.3940 13.6628 12.8502 8.3940 13.8254 13.7198 8.3940 13.7004 13.6417 8.3940 13.7708 13.3282 8.3940 13.9041 10.8627 8.3940 13.7369 12.1206 8.3940 13.6355 13.3287 8.3940 13.7838 12.1520 8.3940 13.8581 14.0591 8.3940 13.8327 13.7479 8.3940 13.7957 13.3196 8.3940 13.6978 12.7152 8.3940 14.9796 7.4296 5.7566 13.8419 13.2911 8.3940 14.7322 6.5577 5.2755 13.7275 13.2299 8.3940 13.8001 13.8218 8.3940 14.5853 5.9856 5.6295 13.7282 13.3223 8.3940 13.7550 11.8537 8.3940 13.7591 12.7576 8.3940 13.9737 5.3712 5.6247 14.2017 8.0818 5.2980 13.9910 5.9827 5.7582 13.6594 7.4603 6.0451 14.7377 6.4394 4.7654 14.7561 6.6324 4.5521 13.8846 13.1233 8.3940 14.0132 11.7983 8.3940 13.8385 11.9595 8.3940 14.5590 6.9726 5.0553 13.8927 13.1276 8.3940 14.0472 11.5387 8.3940 13.8331 13.0902 8.3940 14.1775 5.3658 5.6569 14.1358 10.0705 8.3940 14.6579 6.0938 5.4129 14.5946 7.5520 4.7847 14.0657 14.6940 8.3940 13.9785 14.1942 8.3940 13.8731 11.6367 8.3940 13.9033 11.4984 8.3940 13.8320 12.2869 8.3940 13.9832 13.8700 8.3940 13.9557 13.8244 8.3940 13.9163 13.5235 8.3940 14.2104 6.9781 5.6122 14.2195 4.3091 6.6167 13.9360 13.7126 8.3940 14.0788 10.7965 8.3940 14.1300 4.2750 6.6537 14.7683 7.4981 4.3014 14.3992 8.1379 5.1000 13.9747 11.3237 8.3940 13.3798 7.5404 6.7047 13.9410 11.9108 8.3940 14.6582 8.3761 4.9023 14.6349 7.8915 4.5233 13.8304 6.8868 6.1354 13.9264 12.9416 8.3940 14.2013 10.5728 8.3940 13.9906 13.4001 8.3940 13.9527 12.7615 8.3940 14.0306 11.4393 8.3940 13.9959 11.6178 8.3940 13.9480 12.2133 8.3940 14.2376 10.3912 8.3940 14.2273 14.5655 8.3940 13.2857 7.6652 6.3664 14.0117 13.3017 8.3940 14.2511 14.6069 8.3940 14.1374 14.0633 8.3940 13.9948 12.4631 8.3940 13.5409 6.0947 6.7197 14.6685 7.1944 4.4203 13.5126 5.0569 6.9157 14.3423 7.8397 4.9958 14.1446 13.7683 8.3940 14.0796 12.9544 8.3940 9.9802 3.4200 7.9447 14.0160 12.8882 8.3940 13.7256 13.6061 3.3270 14.2304 9.0099 3.5447 14.1472 13.9017 8.3940 13.1832 4.1598 7.4215 13.4615 5.7975 6.5850 14.1463 12.8521 8.3940 14.1372 13.4350 8.3940 14.4422 8.7415 4.5017 13.5709 12.7565 4.2453 13.2527 6.0782 6.8722 13.7178 13.0968 5.1745 14.0486 12.3541 8.3940 14.0967 11.9079 8.3940 14.1220 11.2792 8.3940 14.0477 13.3068 8.3940 14.1728 8.9446 8.3940 13.8138 5.8362 6.2007 14.1983 13.4883 8.3940 14.0865 12.3727 8.3940 14.2191 10.8372 8.3940 14.1626 12.7751 8.3940 14.1760 13.6843 8.3940 14.1932 13.3872 8.3940 14.3468 14.2493 8.3940 13.6249 6.8498 6.4203 14.2982 14.7513 8.3940 14.1199 11.4213 8.3940 14.1630 14.3155 8.3940 14.2592 10.5060 8.3940 14.3837 7.9584 4.8007 14.0937 11.2465 8.3940 14.1759 11.2089 8.3940 13.5481 7.2892 6.0948 14.1995 7.4902 5.2617 14.1126 7.3252 5.3140 14.0981 13.0661 8.3940 14.0813 12.0260 8.3940 14.0789 12.4552 8.3940 14.0934 13.0112 8.3940 14.1935 13.9089 8.3940 14.1869 11.4728 8.3940 14.2157 13.6961 8.3940 14.2393 10.9705 8.3940 14.1706 11.7488 8.3940 14.2092 13.8684 8.3940 12.6469 12.4692 6.7990 14.1505 13.2940 8.3940 14.3299 14.2790 8.3940 14.2876 11.1102 4.1484 14.2108 13.6018 8.3940 14.3447 10.4133 8.3940 14.1560 12.0105 8.3940 14.3570 14.4662 8.3940 14.1994 12.9913 8.3940 14.2007 11.7975 8.3940 10.1527 3.3650 7.8208 14.2538 11.5998 8.3940 14.5374 9.0345 3.9455 14.3758 7.2917 5.5420 14.2166 9.5814 1.7926 13.4046 7.8705 5.8053 10.0722 4.0770 7.8403 12.4043 11.2656 5.2516 13.6157 12.8736 3.7371 14.3655 9.8567 8.3940 14.8428 6.6475 5.5799 13.9856 7.8605 6.7757 11.3110 11.1592 6.3832 13.7831 8.9811 5.4356 13.7155 14.4787 3.5435 14.6115 9.7802 3.5578 13.6434 12.1994 3.3028 14.7997 10.1991 3.1338 5.0792 12.6360 7.9206 11.5953 10.6327 6.3716 11.4405 7.9658 7.3156 14.3732 9.6390 8.3940 14.4665 8.3450 8.3940 6.7577 3.1983 7.9324 13.6671 7.9483 4.3368 10.3714 8.2535 5.7633 12.1703 12.1806 4.6362 14.1072 8.5069 3.9071 11.4033 14.5371 4.6948 11.3658 10.6903 6.4622 12.8086 11.3562 4.1180 14.4079 10.3113 8.3940 12.7681 12.3726 3.4761 14.4977 10.9470 8.3940 11.8393 14.0170 5.4316 14.3243 9.9430 8.3940 14.2446 11.6167 4.3005 12.2549 5.5937 6.2223 14.3682 9.9204 8.3940 8.4392 13.6598 6.9592 14.3461 9.7189 8.3940 14.4005 9.4806 3.2465 13.4734 8.8067 2.1313 14.3899 8.8673 8.3940 8.1913 8.3761 7.0875 14.2483 10.3913 8.3940 12.8172 14.7247 5.3970 14.4641 8.5883 4.4158 12.0547 6.3239 6.1756 14.3937 10.5705 8.3940 14.2078 12.6312 8.3940 13.9131 8.1775 3.9906 13.4536 7.5735 4.9492 14.7483 9.0667 4.3418 14.5186 9.5754 3.3970 14.3918 13.0259 8.3940 9.3030 10.3689 6.4544 14.2869 8.6309 3.2259 14.1781 8.4635 3.4004 14.5901 10.5841 2.3103 14.3560 10.9783 8.3940 13.0172 7.3554 4.7026 10.7592 13.3341 6.7044 7.9670 13.3949 7.1971 10.4583 3.0457 7.7893 7.4895 10.3520 7.7819 10.9569 11.0602 6.6865 13.2479 7.8631 3.6550 14.4636 14.7470 8.3940 12.8167 6.5528 5.8875 14.3892 11.6661 8.3940 14.4860 14.7321 8.3940 14.6883 9.6074 2.9665 13.1139 6.9261 5.0183 14.6461 10.5219 2.3721 13.6332 8.2371 2.6772 11.4257 4.8159 6.9706 13.0363 11.8953 3.3827 14.3699 10.9206 8.3940 13.2862 7.6428 3.7883 10.7201 5.7498 6.5618 11.3378 8.2662 6.4319 14.4224 14.3152 8.3940 14.5153 10.3382 8.3940 14.2659 9.9783 8.3940 12.5920 14.0236 3.2833 14.3669 11.1157 8.3940 14.3666 13.7316 8.3940 14.4419 10.7649 8.3940 14.3015 13.3975 8.3940 12.9966 7.5084 5.0234 12.3265 11.8510 4.3549 12.3600 13.4661 3.1302 14.4694 14.3092 8.3940 13.9412 11.8191 2.6319 12.8345 10.2207 4.5834 14.2994 13.2493 8.3940 14.5546 10.3114 8.3940 14.5459 10.3732 8.3940 14.3205 11.7703 8.3940 11.4368 12.8036 6.0366 12.9090 14.4930 5.1865 14.6058 10.3684 8.3940 14.4456 11.0361 8.3940 14.4362 14.2240 8.3940 14.3414 13.2734 8.3940 14.3160 12.7192 8.3940 11.3745 10.7493 6.4759 11.5307 11.6090 5.4428 14.4242 11.4697 8.3940 14.3647 9.4012 3.7237 14.4977 14.0837 8.3940 13.2590 10.6315 3.9433 14.3143 12.6244 5.9361 14.5215 10.5169 8.3940 13.1305 10.4120 4.1279 13.9141 12.4098 3.6147 14.1239 10.9645 2.9317 12.4639 10.1468 5.2827 12.9856 14.3568 4.8541 13.6687 14.1077 4.2190 14.5565 10.4096 8.3940 10.7948 11.6289 6.1465 14.4568 13.5179 8.3940 14.4108 10.0548 8.3940 14.4177 8.8491 8.3940 12.8458 9.4594 5.6374 11.6934 11.5758 5.6495 12.8104 11.2634 5.7402 12.6892 7.7912 7.2394 14.5715 9.4078 8.3940 14.2076 6.4041 5.4636 12.7389 1.0226 7.2793 14.4279 8.8897 8.3940 14.4503 8.5414 8.3940 12.7673 10.3487 6.0340 14.4305 9.4981 8.3940 14.5579 9.8921 8.3940 14.4194 9.4562 8.3940 12.9568 14.3602 5.1335 13.2804 8.7978 6.3019 14.5742 9.2606 8.3940 14.5620 10.5814 8.3940 14.6357 7.9324 8.3940 14.7877 7.6590 6.0456 14.6091 9.1724 5.6528 14.5747 9.0888 8.3940 14.4509 8.4209 8.3940 14.5000 10.0992 5.4414 14.4752 9.3334 8.3940 12.9306 11.0643 5.9826 14.5748 10.3125 8.3940 14.5931 10.7111 8.3940 14.5643 8.7944 8.3940 14.4985 9.5549 8.3940 14.5438 10.4456 8.3940 13.8724 7.0761 7.1779 14.5766 8.9702 8.3940 11.5205 8.7892 7.2231 9.5321 10.5856 7.3205 13.2018 8.3989 6.8150 14.5173 11.4707 8.3940 10.9404 10.9690 7.3354 14.5850 14.4534 8.3940 14.7006 9.6357 5.6767 14.5640 10.6909 8.3940 12.4998 9.7812 5.7523 12.9592 9.0818 6.0628 14.8580 6.0679 5.6796 12.6893 14.9372 5.8973 14.6499 14.2561 8.3940 14.5073 14.1460 8.3940 14.1980 8.3843 5.8891 14.6845 7.8984 8.3940 14.5652 14.2401 8.3940 13.4342 7.6737 7.0630 13.3252 8.0905 6.9172 14.5444 13.7643 8.3940 12.2844 9.8376 6.4891 14.5300 8.3808 8.3940 14.5073 8.8567 8.3940 14.5570 8.2640 8.3940 11.1742 11.7147 7.7653 14.6662 10.2455 8.3940 14.5725 8.1868 8.3940 14.5067 9.1314 8.3940 13.7011 9.4091 6.1485 14.6597 14.7080 8.3940 14.7261 11.8757 8.3940 14.6659 14.3400 8.3940 10.9149 13.0265 7.9235 14.7901 9.9098 4.7547 14.5949 13.6850 8.3940 14.1529 10.2045 5.8826 14.6188 11.1164 8.3940 12.8458 13.9183 7.7733 14.8161 9.8495 5.5269 14.6872 14.3801 8.3940 14.5952 9.2212 8.3940 14.6077 9.8158 3.8639 13.5563 12.6748 3.1183 12.8932 5.6745 7.5553 14.6945 9.8106 8.3940 14.6424 9.0792 8.3940 14.6349 10.0628 8.3940 14.7289 9.1196 8.3940 14.6512 9.7700 8.3940 14.6105 9.7719 8.3940 14.6465 9.1534 8.3940 13.7534 13.3448 7.9666 13.4142 1.0408 7.4057 14.7148 11.1108 8.3940 14.6696 9.2495 8.3940 13.3582 10.5040 5.2503 14.6711 10.4701 8.3940 14.6280 8.8816 8.3940 13.4376 10.2604 5.0244 14.7288 8.9829 8.3940 14.7286 10.8462 8.3940 14.4419 8.9882 5.0708 14.6295 8.9013 8.3940 14.7440 9.1088 8.3940 14.7434 8.7166 8.3940 14.7030 13.7817 8.3940 14.8077 10.5475 8.3940 14.6299 9.0547 8.3940 14.7450 3.1526 6.6409 14.0570 11.2349 7.1291 14.8091 10.5739 8.3940 14.6819 10.8222 8.3940 12.8064 10.7577 6.3888 13.5763 12.4114 6.0398 14.4470 9.7786 5.7734 13.0987 12.7224 7.2919 14.6838 9.1943 8.3940 14.7692 10.4481 8.3940 14.6743 9.5141 8.3940 14.7835 11.0705 8.3940 14.7109 14.1679 8.3940 14.7909 9.5260 8.3940 13.6741 13.6706 7.6216 14.3748 12.4932 6.4053 13.1289 10.8040 7.6355 13.5303 9.1241 5.8750 14.6789 9.8101 8.3940 13.9005 10.4933 4.0953 14.8297 8.8750 5.7276 14.4196 6.4707 6.8415 14.7377 14.5486 8.3940 14.3310 6.2837 7.4022 14.0381 5.1407 7.1503 14.3566 11.0499 3.1771 14.5054 10.9549 3.3890 13.4085 11.9545 7.5020 11.7684 10.2815 6.8223 14.5148 10.9037 3.3695 14.7811 14.7243 8.3940 14.3700 11.5839 4.7034 13.8432 13.0949 5.0932 14.7847 10.4423 8.3940 14.3208 8.9624 4.7903 14.7505 14.4227 8.3940 14.6932 8.4649 8.3940 14.7542 10.8172 8.3940 13.7940 9.9949 4.6371 14.7808 6.4326 6.9245 11.9268 10.1842 6.6447 14.7818 10.3594 8.3940 14.7532 11.0479 8.3940 14.8272 9.7500 8.3940 14.8341 9.5867 8.3940 14.7703 10.9879 8.3940 14.7898 14.5338 8.3940 14.5066 5.6585 6.8814 13.5747 9.3773 4.7135 14.7129 9.2740 8.3940 14.2462 8.8208 5.2904 14.7986 11.0050 8.3940 13.0682 10.2008 5.8816 11.9775 8.8782 7.7012 14.8462 14.7419 8.3940 14.9049 5.9649 6.7051 11.0702 7.1938 8.0405 14.8013 8.4278 8.3940 14.1499 12.0039 3.7087 13.2186 11.7320 7.5237 14.8672 5.5217 6.7338 14.3198 12.4411 6.4356 14.5244 5.6343 7.0773 14.8329 10.2734 8.3940 14.8017 8.2001 8.3940 14.8024 10.7733 8.3940 13.0793 12.6244 7.5269 13.3785 10.1057 5.2002 14.8748 7.3520 6.6783 14.8264 14.2781 8.3940 14.7998 10.7098 8.3940 13.4795 10.8318 4.9755 13.8140 13.9296 7.6060 14.8139 14.2200 8.3940 14.9117 10.3679 3.7934 14.5865 9.8882 3.5466 13.5696 11.3653 5.3262 14.8303 14.2610 8.3940 13.9406 11.3887 4.1278 14.8731 14.6817 8.3940 14.8497 5.3771 6.7638 13.9695 9.9764 4.5340 14.8043 10.4959 8.3940 14.2904 11.9694 4.4946 13.7408 10.6962 4.9191 13.5180 11.3859 6.6262 14.8693 10.6291 8.3940 14.8258 8.6557 8.3940 13.9724 12.6505 8.0832 
        </DataArray>
    </Points>
    <PointData>
        <DataArray type="Float32" Name="tag" format="ascii">
            79995.0000 83247.0000 84467.0000 81067.0000 81147.0000 89763.0000 92787.0000 136783.0000 160427.0000 171079.0000 159383.0000 147207.0000 174479.0000 158219.0000 165831.0000 163851.0000 151143.0000 158659.0000 160523.0000 166163.0000 162731.0000 154219.0000 171367.0000 171795.0000 162183.0000 160667.0000 170991.0000 177575.0000 156719.0000 184647.0000 176551.0000 157191.0000 76783.0000 227819.0000 208503.0000 216539.0000 208675.0000 63887.0000 58819.0000 224175.0000 221867.0000 73151.0000 76515.0000 92403.0000 235475.0000 223563.0000 87739.0000 213879.0000 234107.0000 66419.0000 96747.0000 84295.0000 98671.0000 98675.0000 92515.0000 100251.0000 97927.0000 94639.0000 105807.0000 109275.0000 124015.0000 130603.0000 104843.0000 94643.0000 117891.0000 98599.0000 84435.0000 123175.0000 96695.0000 98719.0000 80843.0000 109151.0000 117415.0000 95339.0000 124887.0000 96635.0000 130819.0000 99323.0000 102995.0000 121203.0000 98767.0000 241723.0000 124807.0000 363311.0000 112811.0000 80051.0000 359831.0000 95947.0000 121187.0000 112571.0000 369999.0000 397543.0000 388547.0000 394055.0000 384919.0000 381255.0000 138547.0000 147219.0000 136007.0000 372359.0000 109855.0000 141763.0000 103175.0000 372019.0000 65579.0000 368863.0000 349423.0000 86071.0000 104059.0000 125051.0000 124743.0000 140103.0000 95427.0000 122635.0000 130495.0000 382559.0000 387071.0000 112767.0000 73947.0000 383191.0000 385051.0000 396151.0000 103959.0000 390951.0000 143759.0000 390563.0000 385087.0000 393011.0000 119659.0000 100427.0000 111503.0000 134067.0000 139367.0000 144255.0000 118179.0000 96755.0000 104915.0000 402635.0000 112759.0000 86931.0000 96055.0000 129687.0000 397899.0000 388751.0000 401079.0000 404531.0000 142535.0000 151983.0000 464419.0000 149983.0000 388615.0000 459367.0000 134055.0000 406259.0000 413071.0000 155663.0000 140123.0000 456119.0000 413103.0000 409499.0000 408051.0000 148271.0000 151963.0000 114991.0000 120183.0000 175551.0000 418071.0000 143511.0000 137903.0000 93151.0000 147015.0000 116419.0000 157411.0000 109911.0000 396427.0000 90287.0000 127395.0000 90899.0000 104763.0000 397415.0000 120599.0000 136479.0000 404987.0000 396271.0000 405951.0000 133555.0000 139647.0000 140515.0000 129891.0000 134283.0000 149959.0000 122731.0000 118719.0000 127175.0000 124199.0000 406599.0000 140323.0000 110691.0000 416655.0000 121127.0000 104047.0000 140571.0000 86863.0000 158663.0000 147059.0000 461515.0000 149283.0000 456651.0000 404863.0000 459847.0000 458143.0000 462875.0000 480591.0000 467615.0000 212443.0000 411351.0000 454487.0000 489635.0000 486171.0000 475723.0000 456211.0000 472455.0000 445227.0000 486047.0000 493335.0000 491647.0000 178799.0000 176779.0000 472435.0000 462803.0000 462807.0000 474231.0000 461047.0000 466147.0000 487935.0000 487951.0000 175399.0000 467783.0000 150867.0000 466163.0000 200639.0000 477523.0000 470991.0000 177063.0000 471051.0000 201871.0000 456923.0000 460115.0000 170299.0000 466379.0000 172119.0000 488151.0000 463319.0000 464839.0000 93959.0000 152631.0000 464651.0000 466311.0000 450939.0000 460147.0000 158603.0000 468187.0000 464943.0000 464803.0000 445571.0000 145315.0000 467739.0000 468283.0000 475931.0000 468003.0000 491815.0000 489983.0000 462611.0000 63855.0000 468011.0000 152667.0000 89423.0000 461615.0000 469675.0000 449547.0000 463291.0000 469703.0000 471219.0000 132211.0000 469619.0000 471227.0000 472971.0000 138895.0000 90331.0000 185335.0000 468263.0000 152223.0000 136935.0000 104943.0000 146211.0000 471463.0000 474667.0000 469815.0000 118115.0000 464775.0000 472931.0000 156531.0000 98615.0000 99611.0000 151079.0000 484591.0000 492115.0000 112751.0000 118079.0000 137727.0000 146419.0000 156699.0000 486695.0000 486387.0000 152595.0000 477915.0000 138007.0000 477959.0000 241731.0000 136431.0000 477903.0000 476203.0000 482971.0000 490535.0000 490411.0000 476223.0000 117967.0000 494015.0000 152003.0000 206479.0000 225831.0000 493219.0000 489719.0000 491531.0000 499907.0000 265939.0000 460427.0000 505235.0000 217195.0000 191475.0000 498711.0000 242271.0000 245175.0000 204775.0000 489783.0000 494975.0000 245259.0000 196243.0000 163103.0000 451055.0000 491699.0000 233475.0000 168619.0000 496863.0000 180279.0000 491615.0000 165171.0000 125655.0000 224419.0000 207735.0000 177091.0000 498739.0000 218479.0000 493475.0000 497039.0000 498795.0000 158527.0000 500151.0000 114039.0000 496831.0000 164759.0000 499207.0000 495675.0000 421971.0000 495443.0000 128795.0000 147383.0000 490551.0000 168611.0000 123159.0000 497343.0000 503003.0000 153963.0000 501563.0000 165207.0000 172219.0000 199087.0000 318695.0000 123215.0000 178635.0000 180447.0000 493679.0000 119419.0000 458351.0000 124179.0000 325871.0000 490243.0000 153735.0000 507235.0000 152863.0000 416703.0000 505995.0000 146107.0000 210983.0000 526487.0000 480647.0000 321087.0000 251211.0000 234919.0000 245351.0000 266215.0000 228535.0000 218611.0000 211107.0000 493191.0000 510019.0000 178583.0000 245311.0000 559467.0000 194599.0000 257799.0000 546887.0000 248247.0000 162935.0000 511787.0000 245267.0000 252787.0000 241827.0000 154707.0000 252995.0000 272179.0000 503875.0000 337091.0000 248191.0000 132555.0000 513459.0000 529631.0000 497143.0000 566931.0000 218635.0000 199195.0000 285039.0000 176775.0000 143375.0000 298119.0000 561527.0000 489823.0000 563359.0000 539203.0000 217019.0000 539279.0000 499039.0000 513779.0000 142727.0000 507075.0000 520467.0000 440223.0000 434459.0000 567099.0000 537879.0000 436267.0000 113203.0000 495363.0000 427015.0000 109191.0000 552255.0000 142091.0000 191703.0000 160415.0000 505447.0000 518763.0000 528675.0000 118779.0000 145431.0000 96019.0000 69487.0000 142631.0000 120551.0000 528595.0000 518591.0000 290971.0000 542751.0000 160095.0000 534555.0000 565919.0000 130907.0000 527103.0000 570563.0000 187111.0000 535943.0000 557759.0000 522063.0000 492255.0000 531899.0000 120331.0000 208055.0000 208099.0000 558463.0000 547563.0000 537779.0000 135987.0000 180319.0000 545947.0000 569003.0000 149003.0000 482987.0000 544087.0000 561679.0000 141643.0000 564023.0000 127443.0000 526867.0000 554183.0000 199099.0000 547663.0000 560251.0000 575627.0000 148199.0000 255811.0000 571835.0000 
         </DataArray>
    </PointData>
</Piece>
</PolyData>
</VTKFile>