<?xml version="1.0"?>
<VTKFile type="RectilinearGrid" version="1.0" byte_order="LittleEndian" header_type="UInt64">
<RectilinearGrid WholeExtent="25 50 0 25 0 15">
<Piece Extent="25 50 0 25 0 15">
<Coordinates>
<DataArray type="Float64" Name="Array X-Axis" format="ascii" RangeMin="15.0" RangeMax="30.0">
15.0 15.6 16.2 16.8 17.4 18.0 18.6 19.2 19.8 20.4 21.0 21.6 22.2 22.8 23.4 24.0 24.6 25.2 25.8 26.4 27.0 27.6 28.2 28.8 29.4 30.0 
</DataArray>
<DataArray type="Float64" Name="Array Y-Axis" format="ascii" RangeMin="0.0" RangeMax="15.0">
0.0 0.6 1.2 1.8 2.4 3.0 3.6 4.2 4.8 5.4 6.0 6.6 7.2 7.8 8.4 9.0 9.6 10.2 10.8 11.4 12.0 12.6 13.2 13.8 14.4 15.0 
</DataArray>
<DataArray type="Float64" Name="Array Z-Axis" format="ascii" RangeMin="0.0" RangeMax="9.0">
0.0 0.6 1.2 1.8 2.4 3.0 3.6 4.2 4.8 5.4 6.0 6.6 7.2 7.8 8.4 9.0 
</DataArray>
</Coordinates>
<PointData>
<DataArray Name="TEMPERATURE" NumberOfComponents="1" type="Float64" format="ascii">
20.0 20.0 20.0 20.0 20.1 20.1 20.1 20.1 20.1 20.1 20.1 20.0 20.0 20.0 20.0 20.0 20.0 20.0 20.0 20.0 20.0 20.0 20.0 20.0 20.0 20.0 20.1 20.1 20.1 20.1 20.1 20.1 20.1 20.2 20.2 20.1 20.1 20.1 20.1 20.1 20.1 20.1 20.1 20.1 20.1 20.1 20.1 20.1 20.1 20.1 20.0 20.0 20.1 20.1 20.2 20.2 20.2 20.2 20.2 20.3 20.3 20.3 20.3 20.2 20.2 20.2 20.2 20.2 20.1 20.1 20.1 20.1 20.1 20.1 20.1 20.1 20.1 20.0 20.2 20.2 20.2 20.3 20.3 20.3 20.3 20.4 20.4 20.4 20.4 20.3 20.3 20.3 20.2 20.2 20.2 20.2 20.2 20.2 20.2 20.2 20.2 20.1 20.1 20.0 20.3 20.3 20.3 20.4 20.4 20.4 20.4 20.4 20.5 20.5 20.5 20.4 20.4 20.3 20.3 20.3 20.3 20.3 20.3 20.3 20.3 20.3 20.2 20.1 20.1 20.0 20.4 20.4 20.4 20.5 20.5 20.5 20.5 20.5 20.6 20.6 20.6 20.5 20.5 20.4 20.4 20.4 20.4 20.4 20.4 20.4 20.3 20.3 20.2 20.1 20.1 20.0 20.5 20.5 20.6 20.6 20.7 20.7 20.7 20.7 20.7 20.8 20.7 20.6 20.6 20.5 20.5 20.5 20.5 20.5 20.5 20.5 20.4 20.3 20.2 20.1 20.1 20.0 20.6 20.6 20.7 20.8 20.8 20.8 20.9 20.9 20.9 20.9 20.9 20.7 20.7 20.7 20.6 20.6 20.6 20.6 20.6 20.5 20.4 20.3 20.2 20.2 20.1 20.0 20.7 20.8 20.8 20.9 21.0 21.0 21.0 21.0 21.1 21.1 21.0 20.9 20.8 20.8 20.8 20.7 20.7 20.7 20.7 20.5 20.4 20.3 20.2 20.2 20.1 20.1 20.8 20.9 21.0 21.1 21.1 21.2 21.2 21.2 21.3 21.3 21.2 21.0 21.0 20.9 20.9 20.9 20.9 20.8 20.7 20.5 20.4 20.3 20.3 20.2 20.1 20.1 21.0 21.1 21.2 21.3 21.4 21.5 21.5 21.5 21.5 21.5 21.3 21.2 21.1 21.1 21.1 21.1 21.0 20.8 20.7 20.6 20.5 20.4 20.3 20.2 20.1 20.1 21.2 21.3 21.4 21.6 21.7 21.8 21.8 21.7 21.7 21.7 21.5 21.4 21.3 21.3 21.3 21.2 21.0 20.8 20.7 20.6 20.5 20.4 20.3 20.2 20.1 20.1 21.3 21.5 21.7 21.9 22.0 22.0 22.1 22.1 22.1 22.0 21.7 21.6 21.6 21.6 21.4 21.3 21.1 20.9 20.8 20.7 20.5 20.4 20.3 20.2 20.1 20.1 21.6 21.7 21.9 22.2 22.3 22.4 22.6 22.6 22.6 22.3 22.0 21.9 21.9 21.8 21.5 21.3 21.1 21.0 20.8 20.7 20.6 20.5 20.4 20.2 20.1 20.1 21.8 22.0 22.2 22.5 22.6 22.9 23.0 23.1 22.9 22.6 22.4 22.3 22.2 21.9 21.6 21.4 21.2 21.0 20.9 20.8 20.6 20.5 20.4 20.3 20.1 20.1 22.1 22.3 22.6 23.0 23.2 23.5 23.7 23.6 23.4 23.1 22.9 22.7 22.3 22.0 21.7 21.5 21.3 21.1 21.0 20.8 20.7 20.5 20.4 20.3 20.1 20.1 22.4 22.7 23.1 23.5 23.9 24.3 24.6 24.5 24.1 23.8 23.4 23.0 22.5 22.2 21.9 21.6 21.4 21.2 21.0 20.9 20.7 20.6 20.4 20.3 20.1 20.1 22.8 23.2 23.6 24.2 24.7 25.3 25.9 25.8 25.1 24.4 23.8 23.2 22.7 22.3 22.0 21.8 21.6 21.4 21.2 21.0 20.8 20.6 20.5 20.3 20.2 20.2 23.4 23.7 24.4 25.2 25.9 26.8 27.5 27.2 26.1 25.1 24.2 23.6 23.1 22.6 22.3 22.1 21.8 21.6 21.4 21.1 20.9 20.7 20.6 20.4 20.3 20.2 24.0 24.5 25.3 27.4 29.3 30.4 31.0 29.8 27.7 26.0 24.9 24.3 23.7 23.0 22.6 22.3 22.0 21.7 21.4 21.2 20.9 20.7 20.6 20.5 20.3 20.2 25.1 25.9 26.9 31.8 34.9 33.3 33.8 32.0 29.8 27.3 26.0 25.2 24.4 23.4 22.8 22.4 22.0 21.6 21.3 21.2 20.9 20.7 20.6 20.4 20.3 20.2 26.3 27.5 29.4 38.1 45.5 20.0 20.0 35.0 32.3 28.7 26.9 25.7 24.7 23.7 23.0 22.5 22.0 21.6 21.3 21.1 20.9 20.7 20.6 20.4 20.2 20.2 26.4 27.9 30.5 38.0 43.8 20.0 20.0 36.5 33.1 28.9 27.2 25.6 24.6 23.9 23.2 22.5 22.0 21.6 21.3 21.1 20.9 20.7 20.6 20.4 20.2 20.1 25.6 26.9 29.0 31.9 33.3 37.9 40.3 34.1 30.3 27.7 26.6 25.2 24.2 23.6 23.0 22.4 21.9 21.6 21.4 21.2 21.0 20.8 20.6 20.3 20.1 20.1 24.8 25.5 26.6 27.9 30.0 34.4 35.2 30.4 27.1 25.9 25.2 24.4 23.6 23.1 22.6 22.2 21.8 21.5 21.3 21.1 20.9 20.7 20.5 20.3 20.2 20.1 23.2 24.6 25.2 26.2 27.7 29.3 28.9 26.9 25.6 24.7 24.0 23.5 23.0 22.6 22.2 21.9 21.6 21.4 21.2 21.0 20.8 20.6 20.4 20.3 20.1 20.1 20.0 20.0 20.0 20.0 20.1 20.1 20.1 20.1 20.1 20.1 20.1 20.0 20.0 20.0 20.0 20.0 20.0 20.0 20.0 20.0 20.0 20.0 20.0 20.0 20.0 20.0 20.1 20.1 20.1 20.1 20.1 20.1 20.1 20.1 20.1 20.1 20.1 20.1 20.1 20.1 20.1 20.1 20.1 20.1 20.1 20.1 20.1 20.1 20.0 20.0 20.0 20.0 20.1 20.1 20.1 20.2 20.2 20.2 20.2 20.3 20.3 20.2 20.2 20.2 20.2 20.2 20.1 20.1 20.1 20.1 20.1 20.1 20.1 20.1 20.1 20.1 20.1 20.0 20.2 20.2 20.2 20.2 20.3 20.3 20.3 20.3 20.4 20.4 20.4 20.3 20.2 20.2 20.2 20.2 20.2 20.2 20.2 20.2 20.2 20.2 20.2 20.1 20.1 20.0 20.3 20.3 20.3 20.3 20.4 20.4 20.4 20.4 20.5 20.5 20.5 20.4 20.3 20.3 20.3 20.3 20.3 20.3 20.3 20.3 20.3 20.2 20.2 20.1 20.1 20.0 20.4 20.4 20.4 20.5 20.5 20.5 20.5 20.5 20.6 20.6 20.6 20.5 20.4 20.4 20.4 20.4 20.4 20.3 20.3 20.4 20.3 20.3 20.2 20.1 20.1 20.0 20.5 20.5 20.5 20.6 20.6 20.7 20.7 20.7 20.7 20.7 20.7 20.6 20.5 20.5 20.5 20.5 20.5 20.4 20.5 20.4 20.4 20.3 20.2 20.1 20.1 20.0 20.6 20.6 20.7 20.7 20.8 20.8 20.8 20.9 20.9 20.9 20.8 20.7 20.6 20.6 20.6 20.6 20.6 20.6 20.6 20.5 20.4 20.3 20.2 20.1 20.1 20.0 20.7 20.7 20.8 20.9 21.0 21.0 21.0 21.1 21.1 21.1 21.0 20.8 20.8 20.8 20.7 20.7 20.7 20.7 20.6 20.5 20.4 20.3 20.2 20.2 20.1 20.0 20.8 20.9 21.0 21.1 21.1 21.2 21.2 21.3 21.3 21.3 21.1 21.0 20.9 20.9 20.9 20.9 20.9 20.8 20.6 20.5 20.4 20.3 20.2 20.2 20.1 20.0 21.0 21.1 21.2 21.3 21.4 21.5 21.5 21.5 21.5 21.4 21.3 21.2 21.1 21.1 21.1 21.1 21.0 20.8 20.6 20.5 20.4 20.3 20.3 20.2 20.1 20.1 21.1 21.2 21.4 21.5 21.7 21.8 21.8 21.8 21.7 21.6 21.5 21.4 21.3 21.3 21.3 21.2 21.0 20.8 20.7 20.6 20.5 20.4 20.3 20.2 20.1 20.1 21.3 21.5 21.6 21.9 22.0 22.1 22.2 22.2 22.1 21.9 21.7 21.6 21.6 21.6 21.4 21.2 21.0 20.8 20.7 20.6 20.5 20.4 20.3 20.2 20.1 20.1 21.6 21.7 21.9 22.2 22.4 22.5 22.7 22.7 22.5 22.3 22.0 22.0 21.9 21.8 21.5 21.3 21.1 20.9 20.8 20.7 20.6 20.4 20.3 20.2 20.1 20.1 21.8 22.0 22.3 22.6 22.8 23.1 23.2 23.2 22.9 22.7 22.5 22.4 22.2 21.9 21.6 21.4 21.2 21.0 20.9 20.7 20.6 20.5 20.4 20.2 20.1 20.1 22.1 22.4 22.7 23.1 23.4 23.8 23.9 23.8 23.5 23.2 23.0 22.7 22.4 22.0 21.7 21.5 21.3 21.1 20.9 20.8 20.6 20.5 20.4 20.2 20.1 20.1 22.5 22.8 23.2 23.7 24.2 24.8 25.1 24.8 24.3 23.9 23.5 23.0 22.6 22.2 21.9 21.6 21.4 21.2 21.0 20.8 20.7 20.5 20.4 20.3 20.1 20.1 23.0 23.3 23.8 24.6 25.4 26.0 26.5 26.2 25.3 24.6 24.0 23.3 22.8 22.4 22.0 21.8 21.5 21.3 21.2 21.0 20.8 20.6 20.5 20.3 20.2 20.1 23.5 24.0 24.7 26.4 27.8 28.4 28.8 28.1 26.6 25.3 24.4 23.7 23.1 22.7 22.3 22.1 21.8 21.6 21.4 21.1 20.9 20.7 20.5 20.4 20.2 20.2 24.2 25.1 26.9 31.3 34.9 36.2 36.3 34.1 29.7 26.3 25.1 24.4 23.8 23.1 22.6 22.3 22.0 21.7 21.5 21.2 20.9 20.7 20.6 20.4 20.2 20.2 25.4 26.5 29.8 43.0 73.8 110.3 104.0 59.8 33.8 28.0 26.2 25.4 24.5 23.6 22.9 22.5 22.1 21.7 21.4 21.2 20.9 20.7 20.5 20.4 20.2 20.2 27.1 28.2 31.4 47.9 115.5 313.5 319.5 107.3 37.4 29.8 27.3 26.1 25.0 24.0 23.2 22.6 22.1 21.7 21.3 21.1 20.9 20.7 20.5 20.4 20.2 20.2 27.4 28.9 31.5 41.6 133.6 403.8 358.5 99.5 37.7 29.9 27.5 26.0 24.9 24.1 23.3 22.7 22.1 21.7 21.4 21.1 20.9 20.7 20.5 20.4 20.2 20.1 26.1 27.9 31.3 37.1 90.2 192.6 151.9 52.9 32.8 28.1 26.6 25.3 24.3 23.7 23.1 22.5 22.0 21.7 21.4 21.1 20.9 20.7 20.5 20.3 20.1 20.1 24.9 26.3 29.0 32.5 36.5 54.7 54.6 34.5 28.6 26.2 25.3 24.4 23.6 23.1 22.6 22.2 21.8 21.5 21.3 21.1 20.9 20.7 20.5 20.3 20.1 20.1 23.3 24.8 25.9 27.7 29.2 31.1 31.3 28.8 26.6 25.0 24.2 23.6 23.1 22.7 22.3 21.9 21.6 21.4 21.1 20.9 20.8 20.6 20.4 20.3 20.1 20.1 20.0 20.0 20.0 20.0 20.0 20.1 20.1 20.1 20.0 20.1 20.1 20.0 20.0 20.0 20.0 20.0 20.0 20.0 20.0 20.0 20.0 20.0 20.0 20.0 20.0 20.0 20.1 20.1 20.1 20.1 20.1 20.1 20.1 20.1 20.1 20.1 20.1 20.1 20.1 20.1 20.1 20.1 20.1 20.1 20.1 20.1 20.0 20.0 20.0 20.0 20.0 20.0 20.1 20.1 20.1 20.1 20.2 20.2 20.2 20.2 20.2 20.2 20.2 20.2 20.1 20.1 20.1 20.1 20.1 20.1 20.1 20.1 20.1 20.1 20.1 20.1 20.0 20.0 20.2 20.2 20.2 20.2 20.2 20.2 20.3 20.3 20.3 20.3 20.3 20.2 20.2 20.2 20.2 20.2 20.2 20.2 20.2 20.1 20.1 20.1 20.1 20.1 20.0 20.0 20.3 20.3 20.3 20.3 20.4 20.4 20.4 20.4 20.4 20.4 20.4 20.3 20.3 20.3 20.3 20.3 20.2 20.2 20.2 20.2 20.2 20.2 20.2 20.1 20.0 20.0 20.3 20.4 20.4 20.4 20.5 20.5 20.5 20.5 20.6 20.6 20.5 20.4 20.4 20.4 20.3 20.3 20.3 20.3 20.3 20.3 20.3 20.3 20.2 20.1 20.0 20.0 20.4 20.5 20.5 20.6 20.6 20.6 20.6 20.7 20.7 20.7 20.6 20.5 20.5 20.5 20.4 20.4 20.4 20.4 20.4 20.4 20.4 20.3 20.2 20.1 20.1 20.0 20.5 20.6 20.6 20.7 20.8 20.8 20.8 20.8 20.9 20.8 20.7 20.6 20.6 20.6 20.5 20.5 20.5 20.6 20.6 20.5 20.4 20.3 20.2 20.1 20.1 20.0 20.7 20.7 20.8 20.9 21.0 21.0 21.0 21.0 21.1 21.0 20.9 20.8 20.7 20.7 20.7 20.7 20.7 20.7 20.6 20.4 20.3 20.3 20.2 20.1 20.1 20.0 20.8 20.9 21.0 21.1 21.2 21.2 21.2 21.3 21.3 21.2 21.0 20.9 20.9 20.8 20.8 20.9 20.9 20.7 20.6 20.4 20.4 20.3 20.2 20.1 20.1 20.0 20.9 21.0 21.2 21.3 21.4 21.5 21.5 21.6 21.5 21.3 21.2 21.1 21.0 21.0 21.1 21.0 20.9 20.7 20.6 20.5 20.4 20.3 20.2 20.2 20.1 20.0 21.1 21.2 21.4 21.6 21.7 21.8 21.9 21.9 21.8 21.6 21.4 21.3 21.3 21.3 21.3 21.1 20.9 20.7 20.6 20.5 20.4 20.3 20.2 20.2 20.1 20.0 21.3 21.5 21.6 21.9 22.1 22.2 22.3 22.3 22.1 21.9 21.7 21.6 21.6 21.6 21.4 21.1 20.9 20.8 20.7 20.6 20.4 20.4 20.3 20.2 20.1 20.0 21.6 21.7 21.9 22.2 22.5 22.7 22.9 22.8 22.5 22.2 22.1 22.0 22.0 21.8 21.5 21.2 21.0 20.9 20.7 20.6 20.5 20.4 20.3 20.2 20.1 20.0 21.8 22.0 22.3 22.7 23.0 23.4 23.6 23.4 23.0 22.7 22.6 22.5 22.2 21.9 21.6 21.3 21.1 21.0 20.8 20.7 20.5 20.4 20.3 20.2 20.1 20.0 22.2 22.5 22.8 23.2 23.8 24.2 24.4 24.2 23.7 23.4 23.1 22.8 22.4 22.0 21.7 21.5 21.2 21.0 20.9 20.7 20.6 20.5 20.3 20.2 20.1 20.1 22.7 23.0 23.3 23.9 24.7 25.7 26.2 25.4 24.6 24.1 23.7 23.2 22.7 22.2 21.9 21.6 21.3 21.1 20.9 20.8 20.6 20.5 20.4 20.2 20.1 20.1 23.2 23.7 24.3 25.6 26.9 28.3 29.0 27.6 25.9 25.0 24.3 23.6 23.0 22.5 22.1 21.8 21.5 21.3 21.1 20.9 20.7 20.6 20.4 20.3 20.1 20.1 23.9 24.5 25.7 29.3 33.1 35.4 38.7 36.3 29.1 25.8 24.8 24.0 23.3 22.8 22.4 22.0 21.8 21.5 21.3 21.1 20.8 20.6 20.5 20.3 20.1 20.1 25.1 29.0 37.5 51.5 59.4 58.4 66.9 60.3 36.5 27.0 25.5 24.6 23.9 23.2 22.7 22.4 22.0 21.7 21.4 21.2 20.9 20.7 20.5 20.3 20.1 20.1 26.4 31.3 47.1 88.2 143.4 183.9 174.2 102.6 43.3 29.5 26.8 25.7 24.8 23.8 23.1 22.6 22.2 21.8 21.5 21.2 20.9 20.7 20.5 20.3 20.1 20.1 28.0 30.9 42.8 87.8 205.4 361.3 358.2 188.5 69.3 36.3 28.3 26.8 25.5 24.4 23.5 22.8 22.3 21.8 21.4 21.2 20.9 20.7 20.5 20.3 20.2 20.1 28.5 31.2 37.9 68.8 225.3 438.6 424.7 222.4 80.1 36.4 28.6 26.7 25.5 24.5 23.6 22.9 22.3 21.8 21.4 21.1 20.9 20.7 20.5 20.3 20.2 20.1 26.8 29.4 37.1 64.1 164.8 311.4 293.4 140.0 51.6 29.6 27.2 25.7 24.7 24.0 23.3 22.7 22.2 21.8 21.4 21.1 20.9 20.7 20.5 20.3 20.2 20.1 25.3 27.4 33.3 47.0 59.8 108.9 118.0 59.7 32.9 27.0 25.6 24.6 23.9 23.3 22.8 22.3 21.9 21.6 21.3 21.1 20.8 20.6 20.5 20.3 20.1 20.1 23.5 25.5 27.1 30.0 32.2 35.7 36.8 31.9 27.8 25.6 24.7 23.9 23.2 22.8 22.3 22.0 21.6 21.4 21.1 20.9 20.7 20.6 20.4 20.3 20.1 20.1 20.0 20.0 20.0 20.0 20.0 20.0 20.0 20.0 20.0 20.0 20.0 20.0 20.0 20.0 20.0 20.0 20.0 20.0 20.0 20.0 20.0 20.0 20.0 20.0 20.0 20.0 20.1 20.1 20.1 20.1 20.1 20.1 20.1 20.1 20.1 20.1 20.1 20.1 20.1 20.1 20.1 20.1 20.1 20.0 20.0 20.0 20.0 20.0 20.0 20.0 20.0 20.0 20.1 20.1 20.1 20.2 20.2 20.2 20.2 20.2 20.2 20.2 20.2 20.2 20.1 20.1 20.1 20.1 20.1 20.1 20.1 20.1 20.1 20.1 20.1 20.1 20.0 20.0 20.2 20.2 20.2 20.2 20.3 20.3 20.3 20.3 20.3 20.3 20.3 20.2 20.2 20.2 20.2 20.2 20.2 20.2 20.1 20.1 20.1 20.1 20.1 20.1 20.0 20.0 20.3 20.3 20.3 20.4 20.4 20.4 20.4 20.4 20.4 20.4 20.4 20.3 20.3 20.3 20.3 20.3 20.2 20.2 20.2 20.2 20.2 20.2 20.1 20.1 20.0 20.0 20.4 20.4 20.4 20.5 20.5 20.5 20.5 20.5 20.6 20.5 20.5 20.4 20.4 20.4 20.3 20.3 20.3 20.3 20.3 20.3 20.3 20.2 20.2 20.1 20.0 20.0 20.5 20.5 20.5 20.6 20.7 20.7 20.7 20.7 20.7 20.7 20.6 20.5 20.5 20.5 20.4 20.4 20.4 20.4 20.4 20.4 20.3 20.2 20.2 20.1 20.0 20.0 20.6 20.6 20.7 20.8 20.8 20.8 20.8 20.8 20.9 20.8 20.7 20.6 20.6 20.6 20.6 20.5 20.5 20.6 20.5 20.5 20.3 20.2 20.2 20.1 20.1 20.0 20.7 20.8 20.8 20.9 21.0 21.0 21.0 21.1 21.0 20.9 20.8 20.8 20.7 20.7 20.7 20.7 20.7 20.7 20.6 20.4 20.3 20.2 20.2 20.1 20.1 20.0 20.8 20.9 21.0 21.1 21.2 21.2 21.3 21.3 21.2 21.1 21.0 20.9 20.9 20.9 20.9 20.9 20.8 20.7 20.6 20.4 20.3 20.3 20.2 20.1 20.1 20.0 21.0 21.1 21.2 21.4 21.5 21.5 21.6 21.6 21.5 21.3 21.2 21.1 21.1 21.1 21.1 21.0 20.9 20.7 20.6 20.5 20.4 20.3 20.2 20.1 20.1 20.0 21.2 21.3 21.4 21.6 21.8 21.8 21.9 21.9 21.8 21.6 21.4 21.3 21.3 21.3 21.3 21.1 20.9 20.7 20.6 20.5 20.4 20.3 20.2 20.2 20.1 20.0 21.4 21.5 21.7 21.9 22.1 22.3 22.4 22.4 22.1 21.9 21.8 21.7 21.6 21.6 21.4 21.1 20.9 20.8 20.6 20.5 20.4 20.3 20.2 20.2 20.1 20.0 21.6 21.8 22.0 22.3 22.6 22.8 23.0 22.9 22.6 22.3 22.2 22.1 22.0 21.8 21.5 21.2 21.0 20.9 20.7 20.6 20.5 20.4 20.3 20.2 20.1 20.0 21.9 22.1 22.4 22.7 23.1 23.5 23.8 23.6 23.1 22.8 22.7 22.5 22.3 21.9 21.6 21.3 21.1 21.0 20.8 20.7 20.5 20.4 20.3 20.2 20.1 20.0 22.3 22.6 23.0 23.4 23.8 24.4 24.8 24.5 23.9 23.6 23.3 22.9 22.5 22.1 21.7 21.5 21.3 21.1 20.9 20.7 20.6 20.4 20.3 20.2 20.1 20.1 22.8 23.2 24.3 25.0 25.3 26.7 27.4 26.2 25.0 24.4 23.9 23.3 22.8 22.3 21.9 21.7 21.4 21.2 21.0 20.8 20.6 20.5 20.3 20.2 20.1 20.1 23.4 24.0 26.3 27.9 28.3 30.8 32.2 29.4 26.5 25.4 24.6 23.8 23.1 22.6 22.2 21.8 21.5 21.3 21.1 20.9 20.7 20.5 20.4 20.2 20.1 20.1 24.1 25.4 29.2 33.2 36.5 41.8 47.1 41.5 30.4 26.4 25.2 24.3 23.5 22.9 22.4 22.0 21.7 21.5 21.2 21.0 20.8 20.6 20.4 20.3 20.1 20.1 25.7 33.0 49.3 66.5 74.7 80.0 93.3 76.4 39.7 28.0 26.1 24.9 24.1 23.4 22.8 22.4 22.0 21.7 21.4 21.1 20.9 20.7 20.5 20.3 20.1 20.1 28.2 45.4 90.4 150.2 191.6 217.2 218.5 147.4 62.5 32.8 27.9 26.1 25.0 24.0 23.3 22.7 22.2 21.9 21.5 21.2 20.9 20.7 20.5 20.3 20.1 20.1 32.7 51.4 98.3 181.9 292.8 391.3 396.0 279.5 129.5 46.6 30.0 27.6 26.1 24.7 23.7 23.0 22.4 22.0 21.6 21.2 21.0 20.7 20.5 20.3 20.2 20.1 34.5 45.8 73.4 156.3 314.6 454.4 475.7 333.1 137.3 46.7 30.4 27.8 26.1 24.9 23.8 23.1 22.5 22.0 21.6 21.3 21.0 20.7 20.5 20.3 20.2 20.1 30.1 35.2 56.2 117.7 213.0 337.8 368.8 213.8 68.9 33.5 28.7 26.7 25.2 24.2 23.5 22.8 22.3 21.9 21.5 21.2 21.0 20.7 20.5 20.3 20.2 20.1 26.0 28.6 38.9 57.8 71.7 136.1 161.4 84.6 36.7 28.6 26.6 25.3 24.2 23.5 23.0 22.5 22.0 21.7 21.4 21.1 20.9 20.7 20.5 20.3 20.2 20.1 23.7 26.0 27.5 30.2 33.4 39.8 43.4 36.1 28.7 26.4 25.3 24.3 23.5 23.0 22.5 22.1 21.7 21.4 21.2 20.9 20.7 20.6 20.4 20.3 20.1 20.1 20.0 20.0 20.0 20.0 20.0 20.0 20.0 20.0 20.1 20.1 20.0 20.0 20.0 20.0 20.0 20.0 20.0 20.0 20.0 20.0 20.0 20.0 20.0 20.0 20.0 20.0 20.1 20.1 20.1 20.1 20.1 20.1 20.1 20.1 20.1 20.1 20.1 20.1 20.1 20.1 20.1 20.1 20.1 20.1 20.1 20.1 20.0 20.0 20.0 20.0 20.0 20.0 20.1 20.1 20.2 20.2 20.2 20.2 20.2 20.2 20.2 20.2 20.2 20.2 20.1 20.1 20.1 20.1 20.1 20.1 20.1 20.1 20.1 20.1 20.1 20.1 20.0 20.0 20.2 20.2 20.3 20.3 20.3 20.3 20.3 20.3 20.3 20.3 20.3 20.3 20.2 20.2 20.2 20.2 20.2 20.2 20.2 20.2 20.2 20.2 20.1 20.1 20.0 20.0 20.3 20.3 20.4 20.4 20.4 20.4 20.4 20.5 20.5 20.4 20.4 20.4 20.3 20.3 20.3 20.3 20.3 20.3 20.3 20.2 20.2 20.2 20.2 20.1 20.0 20.0 20.4 20.4 20.5 20.5 20.5 20.5 20.6 20.6 20.6 20.6 20.5 20.5 20.4 20.4 20.4 20.4 20.4 20.3 20.3 20.3 20.3 20.3 20.2 20.1 20.0 20.0 20.5 20.6 20.6 20.7 20.7 20.7 20.7 20.7 20.7 20.7 20.6 20.6 20.5 20.5 20.5 20.5 20.5 20.5 20.5 20.4 20.4 20.3 20.2 20.1 20.1 20.0 20.6 20.7 20.8 20.8 20.9 20.9 20.9 20.9 20.9 20.9 20.8 20.7 20.7 20.7 20.6 20.6 20.6 20.6 20.6 20.5 20.4 20.3 20.2 20.1 20.1 20.0 20.8 20.8 20.9 21.0 21.1 21.1 21.1 21.1 21.1 21.0 20.9 20.8 20.8 20.8 20.8 20.7 20.7 20.7 20.6 20.5 20.4 20.3 20.2 20.1 20.1 20.0 20.9 21.0 21.1 21.2 21.3 21.3 21.3 21.4 21.3 21.2 21.1 21.0 21.0 21.0 20.9 20.9 20.9 20.7 20.6 20.5 20.4 20.3 20.2 20.1 20.1 20.0 21.1 21.2 21.3 21.5 21.5 21.6 21.6 21.7 21.6 21.4 21.3 21.2 21.2 21.2 21.1 21.1 20.9 20.8 20.6 20.5 20.4 20.3 20.2 20.2 20.1 20.0 21.3 21.4 21.5 21.7 21.8 21.9 22.0 22.0 21.9 21.7 21.6 21.4 21.4 21.4 21.3 21.2 21.0 20.8 20.7 20.6 20.5 20.4 20.3 20.2 20.1 20.0 21.5 21.6 21.8 22.0 22.2 22.3 22.5 22.5 22.3 22.0 21.9 21.8 21.7 21.6 21.4 21.2 21.0 20.9 20.7 20.6 20.5 20.4 20.3 20.2 20.1 20.0 21.7 21.9 22.1 22.3 22.6 22.8 23.0 23.0 22.7 22.4 22.3 22.2 22.1 21.8 21.5 21.3 21.1 21.0 20.8 20.7 20.6 20.4 20.3 20.2 20.1 20.0 22.0 22.3 22.5 22.7 23.1 23.4 23.7 23.7 23.3 23.0 22.8 22.6 22.3 22.0 21.7 21.5 21.3 21.1 20.9 20.8 20.6 20.5 20.3 20.2 20.1 20.1 22.5 23.2 23.6 23.5 23.8 24.2 24.7 24.6 24.1 23.7 23.4 23.0 22.6 22.2 21.9 21.6 21.4 21.2 21.0 20.8 20.7 20.5 20.4 20.2 20.1 20.1 23.1 24.2 26.0 26.0 25.5 26.7 27.6 26.5 25.1 24.5 24.0 23.4 22.9 22.5 22.1 21.8 21.5 21.3 21.1 20.9 20.7 20.5 20.4 20.2 20.1 20.1 23.6 25.6 29.1 29.5 27.2 29.4 32.1 29.5 26.5 25.4 24.7 23.9 23.3 22.8 22.3 22.0 21.6 21.4 21.1 20.9 20.7 20.6 20.4 20.3 20.1 20.1 25.3 28.6 33.6 35.1 31.6 36.0 42.6 36.7 29.0 26.6 25.4 24.4 23.7 23.1 22.6 22.1 21.8 21.5 21.3 21.0 20.8 20.6 20.5 20.3 20.1 20.1 26.9 34.9 50.1 62.8 57.3 59.8 71.8 56.4 35.5 28.6 26.4 25.1 24.2 23.5 22.9 22.4 22.0 21.7 21.4 21.2 20.9 20.7 20.5 20.3 20.1 20.1 29.8 54.2 115.3 175.4 153.6 142.1 172.6 136.1 70.6 36.1 28.8 26.5 25.2 24.2 23.4 22.8 22.3 21.9 21.6 21.3 21.0 20.7 20.5 20.3 20.2 20.1 37.8 80.5 169.0 260.2 242.3 265.4 344.7 291.8 152.5 49.9 31.3 28.0 26.3 25.0 24.0 23.1 22.5 22.1 21.7 21.3 21.0 20.8 20.5 20.3 20.2 20.1 41.7 82.5 155.8 250.2 259.5 318.5 421.9 325.4 146.6 49.1 31.6 28.3 26.4 25.0 24.1 23.2 22.6 22.1 21.7 21.3 21.0 20.8 20.5 20.3 20.2 20.1 34.4 56.1 102.1 164.9 175.8 232.8 300.1 189.3 66.2 36.0 29.7 27.2 25.4 24.3 23.6 23.0 22.4 22.0 21.6 21.3 21.0 20.8 20.5 20.3 20.2 20.1 26.9 33.1 46.7 59.2 62.7 99.7 125.2 78.7 37.6 29.5 27.2 25.7 24.4 23.6 23.1 22.6 22.2 21.8 21.5 21.2 21.0 20.7 20.5 20.3 20.2 20.1 23.8 26.6 28.5 30.2 32.8 39.2 45.0 39.1 30.0 26.9 25.6 24.6 23.8 23.2 22.7 22.3 21.9 21.6 21.3 21.1 20.8 20.6 20.5 20.3 20.1 20.1 20.0 20.0 20.0 20.1 20.1 20.1 20.0 20.0 20.1 20.1 20.1 20.0 20.0 20.0 20.0 20.0 20.0 20.0 20.0 20.0 20.0 20.0 20.0 20.0 20.0 20.0 20.1 20.1 20.1 20.1 20.1 20.1 20.1 20.1 20.1 20.1 20.1 20.1 20.1 20.1 20.1 20.1 20.1 20.1 20.1 20.1 20.1 20.1 20.1 20.0 20.0 20.0 20.2 20.2 20.2 20.2 20.2 20.2 20.2 20.2 20.2 20.2 20.2 20.2 20.2 20.2 20.2 20.2 20.2 20.1 20.1 20.1 20.1 20.1 20.1 20.1 20.0 20.0 20.2 20.3 20.3 20.3 20.3 20.3 20.3 20.3 20.4 20.4 20.3 20.3 20.3 20.3 20.3 20.3 20.2 20.2 20.2 20.2 20.2 20.2 20.2 20.1 20.1 20.0 20.3 20.4 20.4 20.4 20.4 20.4 20.5 20.5 20.5 20.5 20.5 20.4 20.4 20.4 20.4 20.3 20.3 20.3 20.3 20.3 20.3 20.3 20.2 20.1 20.1 20.0 20.5 20.5 20.5 20.6 20.6 20.6 20.6 20.6 20.6 20.6 20.6 20.5 20.5 20.5 20.5 20.5 20.4 20.4 20.4 20.4 20.4 20.3 20.2 20.1 20.1 20.0 20.6 20.6 20.7 20.7 20.7 20.7 20.8 20.8 20.8 20.8 20.7 20.6 20.6 20.6 20.6 20.6 20.5 20.5 20.5 20.5 20.4 20.3 20.2 20.1 20.1 20.0 20.7 20.8 20.8 20.9 20.9 20.9 20.9 21.0 21.0 20.9 20.8 20.8 20.7 20.7 20.7 20.7 20.7 20.6 20.6 20.5 20.4 20.3 20.2 20.1 20.1 20.0 20.8 20.9 21.0 21.1 21.1 21.1 21.1 21.2 21.2 21.1 21.0 20.9 20.9 20.9 20.9 20.8 20.8 20.7 20.7 20.5 20.4 20.3 20.2 20.1 20.1 20.0 21.0 21.1 21.2 21.3 21.3 21.3 21.4 21.4 21.4 21.3 21.2 21.1 21.1 21.1 21.0 21.0 20.9 20.8 20.7 20.6 20.5 20.4 20.3 20.2 20.1 20.0 21.1 21.3 21.4 21.5 21.6 21.6 21.7 21.7 21.7 21.5 21.4 21.3 21.3 21.3 21.2 21.1 21.0 20.9 20.7 20.6 20.5 20.4 20.3 20.2 20.1 20.0 21.3 21.5 21.6 21.7 21.8 21.9 22.0 22.1 22.0 21.8 21.7 21.6 21.5 21.5 21.4 21.2 21.1 20.9 20.8 20.7 20.6 20.4 20.3 20.2 20.1 20.0 21.6 21.7 21.9 22.0 22.2 22.3 22.5 22.5 22.4 22.2 22.0 21.9 21.8 21.7 21.5 21.3 21.2 21.0 20.9 20.7 20.6 20.5 20.3 20.2 20.1 20.0 21.8 22.0 22.2 22.4 22.5 22.7 23.0 23.0 22.8 22.6 22.4 22.2 22.1 21.9 21.6 21.5 21.3 21.1 21.0 20.8 20.6 20.5 20.4 20.2 20.1 20.1 22.2 22.4 22.6 22.8 23.0 23.3 23.6 23.7 23.4 23.1 22.9 22.6 22.4 22.1 21.8 21.6 21.4 21.2 21.0 20.9 20.7 20.5 20.4 20.2 20.1 20.1 22.7 23.7 24.0 23.5 23.6 24.0 24.5 24.6 24.2 23.8 23.4 23.0 22.7 22.4 22.0 21.8 21.6 21.3 21.1 20.9 20.7 20.5 20.4 20.2 20.1 20.1 23.6 25.6 26.7 26.0 25.3 25.9 26.6 26.0 25.0 24.5 24.0 23.5 23.1 22.7 22.3 22.0 21.7 21.4 21.2 20.9 20.7 20.6 20.4 20.3 20.1 20.1 25.3 28.0 29.9 28.1 25.7 27.6 29.4 28.0 26.2 25.3 24.7 24.0 23.4 22.9 22.5 22.1 21.8 21.5 21.2 21.0 20.8 20.6 20.4 20.3 20.1 20.1 28.3 32.2 34.8 31.3 26.4 30.4 34.9 31.9 28.2 26.6 25.4 24.6 23.8 23.2 22.7 22.3 21.9 21.6 21.4 21.1 20.9 20.7 20.5 20.3 20.2 20.1 29.5 36.9 47.7 48.7 37.0 38.1 44.8 40.0 34.3 29.9 26.5 25.4 24.4 23.6 23.1 22.6 22.2 21.8 21.5 21.2 21.0 20.7 20.5 20.3 20.2 20.1 34.3 56.8 111.6 128.8 79.3 75.3 97.8 91.0 69.9 42.8 29.7 26.7 25.3 24.2 23.5 22.9 22.4 22.0 21.7 21.3 21.0 20.8 20.5 20.3 20.2 20.1 56.2 110.4 200.6 204.9 140.5 190.5 258.8 236.7 146.0 56.5 32.4 28.1 26.3 25.0 24.0 23.2 22.6 22.1 21.7 21.4 21.0 20.7 20.5 20.3 20.2 20.1 70.3 139.4 223.9 209.3 153.7 236.3 326.9 268.2 139.9 53.0 32.8 28.5 26.5 25.1 24.1 23.3 22.6 22.1 21.7 21.3 21.0 20.8 20.5 20.3 20.2 20.1 53.6 95.4 143.1 140.0 104.7 137.8 188.5 140.1 69.3 40.9 30.8 27.5 25.8 24.6 23.7 23.1 22.5 22.1 21.6 21.3 21.0 20.8 20.6 20.4 20.2 20.1 32.5 44.0 53.7 55.3 52.6 58.7 73.6 65.2 43.8 32.5 27.6 26.0 24.8 24.0 23.3 22.8 22.4 21.9 21.5 21.3 21.0 20.8 20.6 20.4 20.2 20.1 24.0 28.3 30.9 30.9 31.9 36.2 42.2 40.7 33.0 28.0 25.9 24.9 24.1 23.4 22.9 22.5 22.1 21.7 21.4 21.1 20.9 20.7 20.5 20.3 20.2 20.1 20.0 20.0 20.0 20.1 20.1 20.1 20.1 20.1 20.1 20.1 20.1 20.1 20.0 20.0 20.0 20.0 20.0 20.0 20.0 20.0 20.0 20.0 20.0 20.0 20.0 20.0 20.1 20.1 20.1 20.1 20.1 20.1 20.1 20.1 20.1 20.1 20.1 20.1 20.1 20.1 20.1 20.1 20.1 20.1 20.1 20.1 20.1 20.1 20.1 20.1 20.0 20.0 20.2 20.2 20.2 20.2 20.2 20.2 20.2 20.2 20.3 20.3 20.2 20.2 20.2 20.2 20.2 20.2 20.2 20.2 20.2 20.2 20.2 20.2 20.1 20.1 20.1 20.0 20.3 20.3 20.3 20.3 20.3 20.3 20.3 20.4 20.4 20.4 20.4 20.3 20.3 20.3 20.3 20.3 20.3 20.3 20.3 20.3 20.3 20.2 20.2 20.2 20.1 20.0 20.4 20.4 20.4 20.4 20.4 20.4 20.5 20.5 20.5 20.5 20.5 20.4 20.4 20.4 20.4 20.4 20.4 20.4 20.4 20.4 20.4 20.3 20.2 20.2 20.1 20.0 20.5 20.5 20.6 20.6 20.6 20.6 20.6 20.7 20.7 20.7 20.6 20.6 20.5 20.5 20.5 20.5 20.5 20.5 20.5 20.5 20.4 20.3 20.2 20.2 20.1 20.0 20.6 20.6 20.7 20.7 20.7 20.7 20.8 20.8 20.8 20.8 20.8 20.7 20.7 20.7 20.7 20.6 20.6 20.6 20.6 20.5 20.5 20.4 20.3 20.2 20.1 20.0 20.7 20.8 20.8 20.9 20.9 20.9 20.9 21.0 21.0 21.0 20.9 20.8 20.8 20.8 20.8 20.8 20.8 20.7 20.7 20.6 20.5 20.4 20.3 20.2 20.1 20.0 20.9 20.9 21.0 21.1 21.1 21.1 21.1 21.2 21.2 21.2 21.1 21.0 21.0 21.0 21.0 20.9 20.9 20.8 20.7 20.6 20.5 20.4 20.3 20.2 20.1 20.0 21.0 21.1 21.2 21.3 21.3 21.3 21.4 21.5 21.5 21.4 21.3 21.2 21.2 21.2 21.1 21.0 21.0 20.9 20.8 20.7 20.5 20.4 20.3 20.2 20.1 20.0 21.2 21.3 21.4 21.5 21.6 21.6 21.7 21.8 21.7 21.7 21.6 21.5 21.4 21.3 21.3 21.2 21.1 21.0 20.8 20.7 20.6 20.4 20.3 20.2 20.1 20.0 21.4 21.5 21.6 21.8 21.8 21.9 22.0 22.1 22.1 21.9 21.8 21.7 21.6 21.5 21.4 21.3 21.2 21.0 20.9 20.8 20.6 20.5 20.3 20.2 20.1 20.1 21.6 21.7 21.9 22.0 22.2 22.3 22.5 22.5 22.4 22.3 22.1 22.0 21.9 21.7 21.6 21.4 21.3 21.1 21.0 20.8 20.6 20.5 20.4 20.2 20.1 20.1 21.9 22.0 22.2 22.4 22.5 22.7 22.9 23.0 22.9 22.7 22.5 22.3 22.1 21.9 21.7 21.6 21.4 21.2 21.0 20.8 20.7 20.5 20.4 20.2 20.1 20.1 22.3 22.5 22.6 22.7 23.0 23.3 23.6 23.7 23.5 23.2 23.0 22.7 22.4 22.2 21.9 21.7 21.5 21.3 21.1 20.9 20.7 20.6 20.4 20.2 20.1 20.1 22.8 23.7 23.8 23.4 23.5 23.9 24.2 24.4 24.2 23.8 23.4 23.1 22.7 22.5 22.2 21.9 21.6 21.4 21.1 20.9 20.7 20.6 20.4 20.2 20.1 20.1 23.9 25.8 26.2 25.5 25.1 25.4 25.7 25.5 24.9 24.4 23.9 23.5 23.1 22.7 22.4 22.1 21.8 21.5 21.2 21.0 20.8 20.6 20.4 20.3 20.1 20.1 26.3 28.7 28.0 26.0 26.3 27.4 27.4 26.9 26.0 25.3 24.6 24.1 23.5 23.0 22.6 22.2 21.9 21.6 21.3 21.1 20.8 20.6 20.4 20.3 20.1 20.1 29.5 32.7 30.5 26.3 27.7 30.3 30.0 29.2 28.3 27.1 25.4 24.7 23.9 23.3 22.9 22.5 22.1 21.7 21.5 21.2 20.9 20.7 20.5 20.3 20.2 20.1 30.9 37.5 38.8 32.5 33.3 38.4 37.5 37.8 40.0 34.5 26.6 25.4 24.5 23.7 23.2 22.7 22.3 21.9 21.6 21.3 21.0 20.8 20.5 20.4 20.2 20.1 39.4 61.3 79.4 59.6 49.8 66.0 65.5 76.1 83.0 55.6 30.2 26.5 25.2 24.3 23.6 23.0 22.5 22.1 21.7 21.3 21.0 20.8 20.5 20.3 20.2 20.1 83.0 138.3 150.2 110.3 136.2 190.8 191.9 196.1 154.8 73.2 34.4 27.9 26.1 24.8 24.0 23.3 22.7 22.1 21.7 21.3 21.0 20.7 20.5 20.3 20.2 20.1 120.3 189.4 180.6 127.9 180.3 241.7 233.0 213.7 149.0 70.2 37.0 28.6 26.5 25.1 24.1 23.3 22.7 22.1 21.6 21.3 21.0 20.7 20.5 20.3 20.2 20.1 97.2 135.5 125.7 89.0 102.1 121.9 116.1 106.1 87.1 57.8 34.3 27.7 26.0 24.8 23.8 23.1 22.5 22.1 21.6 21.3 21.0 20.8 20.6 20.4 20.2 20.1 49.5 59.2 56.0 47.1 43.8 46.7 55.9 62.5 59.3 43.1 28.4 26.1 25.1 24.2 23.4 22.8 22.3 21.9 21.5 21.2 21.0 20.8 20.6 20.4 20.2 20.1 24.8 29.3 31.6 30.7 31.5 35.1 41.1 43.8 39.1 31.0 26.1 25.0 24.3 23.6 23.0 22.5 22.1 21.7 21.4 21.1 20.9 20.7 20.5 20.3 20.2 20.1 20.0 20.0 20.0 20.1 20.0 20.0 20.0 20.0 20.1 20.1 20.1 20.1 20.0 20.0 20.0 20.0 20.0 20.0 20.0 20.0 20.0 20.0 20.0 20.0 20.0 20.0 20.1 20.1 20.1 20.1 20.1 20.1 20.1 20.1 20.1 20.1 20.1 20.1 20.1 20.1 20.1 20.1 20.1 20.1 20.1 20.1 20.1 20.1 20.1 20.1 20.1 20.0 20.2 20.2 20.2 20.2 20.2 20.2 20.2 20.2 20.3 20.3 20.2 20.2 20.2 20.2 20.2 20.2 20.2 20.2 20.2 20.2 20.2 20.2 20.2 20.1 20.1 20.0 20.3 20.3 20.3 20.3 20.3 20.3 20.3 20.4 20.4 20.4 20.4 20.3 20.3 20.3 20.3 20.3 20.3 20.3 20.3 20.3 20.3 20.3 20.2 20.2 20.1 20.0 20.4 20.4 20.4 20.5 20.5 20.4 20.4 20.5 20.5 20.5 20.5 20.5 20.5 20.4 20.4 20.4 20.4 20.4 20.4 20.4 20.4 20.4 20.3 20.2 20.1 20.0 20.5 20.5 20.6 20.6 20.6 20.6 20.6 20.7 20.7 20.7 20.7 20.7 20.6 20.6 20.6 20.6 20.6 20.5 20.5 20.5 20.5 20.4 20.3 20.2 20.1 20.0 20.6 20.7 20.7 20.8 20.7 20.7 20.7 20.8 20.8 20.9 20.9 20.8 20.7 20.8 20.8 20.7 20.7 20.7 20.6 20.6 20.5 20.4 20.3 20.2 20.1 20.0 20.7 20.8 20.9 20.9 20.9 20.9 20.9 21.0 21.0 21.0 21.0 21.0 20.9 20.9 20.9 20.9 20.8 20.8 20.7 20.6 20.5 20.4 20.3 20.2 20.1 20.0 20.9 20.9 21.0 21.1 21.1 21.1 21.1 21.2 21.2 21.2 21.2 21.1 21.1 21.1 21.1 21.0 20.9 20.9 20.8 20.7 20.5 20.4 20.3 20.2 20.1 20.0 21.0 21.1 21.2 21.3 21.3 21.3 21.4 21.5 21.5 21.4 21.4 21.3 21.3 21.3 21.2 21.1 21.0 20.9 20.8 20.7 20.6 20.4 20.3 20.2 20.1 20.0 21.2 21.3 21.4 21.5 21.6 21.6 21.7 21.8 21.8 21.7 21.7 21.6 21.5 21.4 21.3 21.2 21.1 21.0 20.9 20.8 20.6 20.5 20.3 20.2 20.1 20.1 21.5 21.6 21.6 21.8 21.9 21.9 22.0 22.1 22.1 22.1 22.0 21.8 21.7 21.6 21.5 21.3 21.2 21.1 21.0 20.8 20.6 20.5 20.3 20.2 20.1 20.1 21.8 21.9 21.9 22.0 22.2 22.3 22.4 22.5 22.5 22.4 22.3 22.1 21.9 21.8 21.6 21.5 21.4 21.2 21.0 20.8 20.6 20.5 20.4 20.2 20.1 20.1 22.1 22.2 22.2 22.3 22.5 22.7 22.9 23.0 23.0 22.9 22.6 22.4 22.2 22.0 21.8 21.7 21.5 21.3 21.1 20.9 20.7 20.5 20.4 20.2 20.1 20.1 22.4 22.5 22.6 22.7 22.9 23.1 23.4 23.6 23.5 23.3 23.0 22.7 22.5 22.3 22.1 21.9 21.6 21.4 21.1 20.9 20.7 20.5 20.4 20.2 20.1 20.1 22.8 23.3 23.4 23.3 23.4 23.7 23.9 24.2 24.1 23.8 23.4 23.1 22.8 22.6 22.3 22.0 21.7 21.4 21.2 20.9 20.7 20.5 20.4 20.2 20.1 20.1 23.6 24.9 25.1 24.7 24.7 24.9 25.1 25.2 25.0 24.5 23.9 23.5 23.2 22.9 22.6 22.2 21.8 21.5 21.2 21.0 20.7 20.6 20.4 20.2 20.1 20.1 25.3 27.1 26.1 25.6 26.4 26.4 26.4 26.4 26.1 25.3 24.6 24.1 23.7 23.3 22.8 22.4 22.0 21.6 21.3 21.0 20.8 20.6 20.4 20.3 20.1 20.1 27.9 30.4 27.6 26.5 28.6 28.1 28.0 28.4 29.6 28.2 25.4 24.7 24.2 23.6 23.1 22.6 22.1 21.8 21.5 21.2 20.9 20.7 20.5 20.3 20.2 20.1 31.4 36.8 32.5 30.0 33.6 32.6 33.3 39.1 50.0 42.1 26.8 25.3 24.6 24.0 23.3 22.8 22.3 22.0 21.6 21.3 21.0 20.7 20.5 20.3 20.2 20.1 40.0 56.3 49.2 40.5 46.6 45.5 49.3 75.1 98.3 66.6 30.3 26.2 25.2 24.4 23.7 23.1 22.6 22.1 21.7 21.3 21.0 20.8 20.5 20.3 20.2 20.1 77.9 114.8 100.8 105.7 135.0 137.9 143.5 168.9 155.7 79.0 35.1 27.6 25.9 24.9 24.1 23.4 22.7 22.2 21.7 21.3 20.9 20.7 20.5 20.3 20.2 20.1 127.0 163.5 135.6 150.0 195.0 194.5 185.6 185.9 156.5 82.4 39.9 28.4 26.4 25.1 24.2 23.4 22.7 22.1 21.7 21.2 20.9 20.7 20.5 20.3 20.2 20.1 113.3 127.9 100.6 94.8 112.4 110.7 103.6 105.9 112.9 78.3 36.8 27.5 26.0 24.9 23.9 23.1 22.5 22.0 21.6 21.3 21.0 20.7 20.5 20.4 20.2 20.1 55.8 59.6 51.3 42.6 41.5 46.4 57.4 71.4 79.3 56.3 28.9 26.0 25.2 24.3 23.5 22.8 22.3 21.9 21.5 21.2 21.0 20.7 20.5 20.4 20.2 20.1 26.5 29.8 31.0 30.7 31.8 35.0 42.4 49.9 47.3 34.7 26.1 25.1 24.5 23.8 23.1 22.6 22.1 21.7 21.4 21.1 20.9 20.7 20.5 20.3 20.2 20.1 20.0 20.0 20.1 20.1 20.1 20.0 20.0 20.0 20.1 20.1 20.1 20.1 20.1 20.1 20.1 20.1 20.1 20.1 20.1 20.1 20.1 20.1 20.1 20.1 20.1 20.0 20.1 20.1 20.1 20.1 20.1 20.1 20.1 20.1 20.1 20.1 20.1 20.1 20.1 20.1 20.1 20.1 20.1 20.1 20.1 20.1 20.1 20.1 20.1 20.1 20.1 20.1 20.2 20.2 20.2 20.2 20.2 20.2 20.2 20.2 20.3 20.3 20.3 20.3 20.2 20.2 20.2 20.2 20.2 20.2 20.2 20.2 20.2 20.2 20.2 20.2 20.1 20.1 20.3 20.3 20.3 20.4 20.4 20.3 20.3 20.4 20.4 20.4 20.4 20.4 20.4 20.3 20.3 20.3 20.3 20.3 20.3 20.3 20.3 20.3 20.3 20.2 20.1 20.1 20.4 20.4 20.5 20.5 20.5 20.5 20.5 20.5 20.5 20.6 20.6 20.6 20.5 20.4 20.4 20.4 20.4 20.5 20.5 20.5 20.4 20.4 20.3 20.2 20.1 20.1 20.5 20.6 20.6 20.7 20.7 20.6 20.6 20.6 20.7 20.7 20.8 20.8 20.7 20.6 20.6 20.6 20.6 20.6 20.6 20.6 20.5 20.4 20.3 20.2 20.1 20.1 20.7 20.7 20.8 20.9 20.8 20.8 20.8 20.8 20.9 20.9 21.0 21.0 20.9 20.9 20.9 20.8 20.8 20.7 20.7 20.7 20.6 20.4 20.3 20.2 20.1 20.1 20.8 20.9 21.0 21.0 21.0 21.0 20.9 21.0 21.0 21.1 21.2 21.2 21.1 21.1 21.1 21.0 20.9 20.8 20.8 20.7 20.6 20.5 20.3 20.2 20.1 20.0 20.9 21.0 21.1 21.2 21.2 21.2 21.2 21.2 21.2 21.3 21.4 21.4 21.3 21.2 21.2 21.1 21.0 20.9 20.8 20.7 20.6 20.5 20.3 20.2 20.1 20.0 21.0 21.1 21.2 21.4 21.4 21.4 21.4 21.5 21.5 21.5 21.6 21.5 21.4 21.4 21.3 21.2 21.1 21.0 20.9 20.8 20.6 20.5 20.3 20.2 20.1 20.1 21.2 21.3 21.4 21.6 21.6 21.6 21.7 21.8 21.8 21.8 21.8 21.7 21.6 21.5 21.4 21.3 21.2 21.1 21.0 20.8 20.7 20.5 20.3 20.2 20.1 20.1 21.5 21.6 21.7 21.8 21.9 22.0 22.0 22.1 22.2 22.2 22.1 21.9 21.8 21.6 21.5 21.4 21.3 21.2 21.1 20.9 20.7 20.5 20.3 20.2 20.1 20.1 21.9 21.9 22.0 22.1 22.2 22.3 22.4 22.6 22.7 22.6 22.4 22.2 22.0 21.8 21.7 21.5 21.4 21.3 21.2 21.0 20.7 20.5 20.3 20.2 20.1 20.1 22.2 22.3 22.3 22.4 22.6 22.7 22.9 23.1 23.1 23.0 22.7 22.4 22.2 22.0 21.9 21.7 21.6 21.4 21.2 20.9 20.7 20.5 20.3 20.2 20.1 20.0 22.5 22.6 22.7 22.8 2