<?xml version="1.0"?>
<VTKFile type="PolyData" version="1.0" byte_order="LittleEndian" header_type="UInt64">
<PolyData>
<Piece NumberOfPoints="162" NumberOfVerts="0" NumberOfLines="0" NumberOfPolys="0">
    <Points>
        <DataArray type="Float32" NumberOfComponents="3" format="ascii">
        14.8534 6.2763 6.3957 14.8336 8.1829 3.1922 14.2440 8.3758 3.9608 14.5108 8.9275 3.4857 14.4437 8.9251 3.5616 14.7280 8.5366 3.6854 14.2647 8.6941 3.8135 14.4606 7.2074 4.1800 13.8715 7.7598 5.1727 12.2118 6.0899 6.8622 14.8558 7.0291 5.2514 13.4823 9.4178 3.2134 14.6159 3.3920 5.0507 14.0821 7.0992 4.7177 14.5730 8.0508 3.1457 14.4529 6.6745 4.2086 14.2291 7.1261 5.8617 13.5683 6.2893 6.8916 14.3988 9.0263 4.7711 13.6625 6.1779 6.7764 14.6097 10.7023 2.7227 13.9699 7.3124 5.9847 14.5714 8.4640 4.8382 14.5302 8.1909 4.2419 14.5961 9.5850 4.6378 14.4134 9.5219 4.9989 14.7180 10.8557 1.8376 14.8884 10.4917 4.6103 14.4559 8.5950 4.6773 14.6508 8.1496 3.0977 14.7207 7.8534 3.6189 14.4353 8.9841 4.3350 14.4392 6.4606 5.7440 14.4989 8.8023 4.3233 14.6275 9.5945 4.6755 14.1977 6.4702 5.4392 14.7498 9.7119 4.3331 14.6435 7.5205 3.5183 14.5107 6.5081 5.3630 14.7453 8.2041 3.3972 14.9679 10.2445 3.9540 14.9486 10.1248 3.8237 14.7086 9.6251 3.4599 12.3674 3.9131 7.1524 14.8626 7.3938 3.0905 14.9953 10.4154 3.5997 14.8334 10.7372 3.1715 14.1937 7.8435 4.9795 12.6457 3.3929 7.5735 12.9121 5.1087 6.3531 14.7279 7.1600 4.2588 14.4541 7.8277 4.5255 14.6728 7.9358 4.1342 14.4058 7.9210 5.0074 14.5500 8.2575 4.8396 14.4917 8.0633 4.9789 14.7030 8.3852 4.3624 14.8664 7.0878 3.1231 14.7591 8.7386 4.1511 14.5099 6.3265 6.1372 14.9473 7.4865 5.2872 13.2682 5.5150 7.5592 14.5684 8.4256 5.3728 14.8527 6.4011 6.9793 12.3986 8.6473 6.9882 12.9037 9.6511 6.1411 13.0088 8.1599 7.0444 13.3531 9.1964 6.1103 13.6172 9.0121 5.5979 12.9604 9.8814 6.7036 14.2941 5.5263 6.8927 13.0533 7.4713 7.2062 13.1889 10.5771 6.1668 13.0412 7.2375 7.0795 13.3571 9.9871 6.1774 14.0376 8.9499 5.8299 14.8191 6.9139 5.8865 13.2859 10.1934 5.4812 11.8767 8.2652 7.2690 11.7772 9.8357 7.1378 12.0115 9.4772 7.1611 13.4183 10.4884 5.4101 13.3966 9.9983 5.1022 13.2013 9.4804 5.6778 13.4502 8.1813 6.2832 12.5635 9.9538 6.7522 13.6762 7.7282 6.4709 13.7849 10.4297 4.8049 13.6107 7.9711 6.3580 13.2615 9.4379 5.6830 13.8133 9.3416 4.6013 13.8680 6.9723 6.8417 13.5099 8.8806 5.6859 14.4785 8.3468 5.1713 14.1298 8.2150 5.7360 13.8576 9.9695 4.8550 13.7223 9.4616 4.8363 12.6914 7.4427 7.0951 13.9495 6.9513 6.9074 13.0515 6.1659 7.5160 13.1628 4.7589 7.2194 14.4302 9.0768 4.2729 14.5305 9.1072 4.0744 13.5633 9.3577 5.7486 12.5625 4.2963 7.3946 13.8368 9.2067 5.2752 13.7822 8.9868 5.4213 12.2163 7.6159 7.2725 13.7503 9.2779 5.3582 13.0224 7.5168 7.0357 13.8411 8.8150 5.6879 13.2469 8.2297 6.6575 14.2499 9.4918 4.4053 13.8114 7.9233 6.4590 14.4155 8.9509 4.6433 12.8757 3.9547 7.1746 14.7160 8.7179 4.6825 12.9102 3.9295 7.0531 13.6775 6.5845 7.2402 14.4225 8.9164 4.7788 13.7982 6.1673 7.3008 14.0066 8.8734 5.7931 14.8927 8.2187 5.1476 14.8790 9.1234 3.9967 13.5088 8.0165 6.6496 14.1588 7.8558 6.2095 14.6402 9.2656 4.3401 14.6339 8.1477 5.5672 14.4934 7.4284 6.0222 14.0396 7.7661 6.4666 14.5790 8.9918 5.2137 13.4142 5.7698 7.5973 14.6466 6.1113 6.7301 13.6365 7.9289 6.9101 12.7273 4.7234 7.7120 14.4116 7.2769 6.7435 14.5919 5.9671 6.7410 13.3811 7.2370 7.2919 14.7970 5.3075 6.3272 14.7312 6.5550 5.8088 13.8893 8.1053 6.6505 13.4624 4.6465 6.9604 14.0007 5.6379 7.0745 14.1349 7.4635 7.0318 13.8758 6.6270 7.5854 14.7281 6.8515 6.0047 13.8701 8.1426 6.6404 14.9251 7.8887 6.1182 14.3192 5.8454 6.7808 14.2943 4.7240 6.3832 13.4543 4.2008 7.9598 14.5153 7.6194 6.2238 13.5199 6.9927 7.2319 14.5693 8.6712 5.5176 14.7326 7.8077 5.8344 14.7056 10.9469 2.3110 14.1668 4.7783 6.5657 13.6012 4.0320 6.5559 14.4997 10.8044 3.3306 14.5594 10.7230 3.6577 13.1393 2.2319 7.8098 14.8579 7.4035 6.5626 
        </DataArray>
    </Points>
    <PointData>
        <DataArray type="Float32" Name="tag" format="ascii">
            19307.0000 21911.0000 15139.0000 18383.0000 20847.0000 18851.0000 28435.0000 33571.0000 29691.0000 21271.0000 14587.0000 77379.0000 39535.0000 98559.0000 97267.0000 97911.0000 79995.0000 80015.0000 87707.0000 84131.0000 87007.0000 83247.0000 82583.0000 95439.0000 89335.0000 84467.0000 93035.0000 81067.0000 92131.0000 96599.0000 97043.0000 91423.0000 92939.0000 92919.0000 87995.0000 86623.0000 81939.0000 98111.0000 93455.0000 93683.0000 84223.0000 82459.0000 92023.0000 88435.0000 99923.0000 76475.0000 79439.0000 89155.0000 90599.0000 92787.0000 95467.0000 93607.0000 94843.0000 91279.0000 77883.0000 84863.0000 93471.0000 101819.0000 84967.0000 84695.0000 77663.0000 144403.0000 141215.0000 136783.0000 160427.0000 160103.0000 171079.0000 167843.0000 167635.0000 159383.0000 147207.0000 174479.0000 158219.0000 165831.0000 159167.0000 171279.0000 142447.0000 158299.0000 163851.0000 151143.0000 158659.0000 157131.0000 159087.0000 157879.0000 155991.0000 160523.0000 153147.0000 158987.0000 152283.0000 156507.0000 160043.0000 151567.0000 155583.0000 155039.0000 157419.0000 160747.0000 164523.0000 166163.0000 154447.0000 162731.0000 154219.0000 155871.0000 160759.0000 164431.0000 160843.0000 162587.0000 168415.0000 171367.0000 162051.0000 171795.0000 164587.0000 171507.0000 166107.0000 165731.0000 166051.0000 158847.0000 158755.0000 157291.0000 162183.0000 166075.0000 160667.0000 169935.0000 158139.0000 158763.0000 167647.0000 169999.0000 168335.0000 166183.0000 157543.0000 169595.0000 171031.0000 170991.0000 153783.0000 177835.0000 176091.0000 176035.0000 152703.0000 177575.0000 149647.0000 152259.0000 174579.0000 156719.0000 156559.0000 183111.0000 184647.0000 155291.0000 176099.0000 174567.0000 155419.0000 154407.0000 186435.0000 171107.0000 176551.0000 173075.0000 167619.0000 83315.0000 151171.0000 157191.0000 76863.0000 76783.0000 154035.0000 183119.0000 
         </DataArray>
    </PointData>
</Piece>
</PolyData>
</VTKFile>