<?xml version="1.0"?>
<VTKFile type="RectilinearGrid" version="1.0" byte_order="LittleEndian" header_type="UInt64">
<RectilinearGrid WholeExtent="25 50 0 25 0 15">
<Piece Extent="25 50 0 25 0 15">
<Coordinates>
<DataArray type="Float64" Name="Array X-Axis" format="ascii" RangeMin="15.0" RangeMax="30.0">
15.0 15.6 16.2 16.8 17.4 18.0 18.6 19.2 19.8 20.4 21.0 21.6 22.2 22.8 23.4 24.0 24.6 25.2 25.8 26.4 27.0 27.6 28.2 28.8 29.4 30.0 
</DataArray>
<DataArray type="Float64" Name="Array Y-Axis" format="ascii" RangeMin="0.0" RangeMax="15.0">
0.0 0.6 1.2 1.8 2.4 3.0 3.6 4.2 4.8 5.4 6.0 6.6 7.2 7.8 8.4 9.0 9.6 10.2 10.8 11.4 12.0 12.6 13.2 13.8 14.4 15.0 
</DataArray>
<DataArray type="Float64" Name="Array Z-Axis" format="ascii" RangeMin="0.0" RangeMax="9.0">
0.0 0.6 1.2 1.8 2.4 3.0 3.6 4.2 4.8 5.4 6.0 6.6 7.2 7.8 8.4 9.0 
</DataArray>
</Coordinates>
<PointData>
<DataArray Name="TEMPERATURE" NumberOfComponents="1" type="Float64" format="ascii">
20.1 20.1 20.1 20.1 20.1 20.1 20.1 20.1 20.1 20.1 20.1 20.1 20.1 20.1 20.1 20.1 20.1 20.1 20.1 20.0 20.0 20.0 20.0 20.0 20.0 20.0 20.1 20.1 20.1 20.1 20.1 20.1 20.1 20.1 20.1 20.1 20.1 20.1 20.1 20.1 20.1 20.1 20.1 20.1 20.1 20.1 20.0 20.0 20.0 20.0 20.0 20.0 20.1 20.1 20.1 20.1 20.1 20.1 20.1 20.1 20.2 20.2 20.1 20.1 20.1 20.1 20.1 20.1 20.1 20.1 20.1 20.1 20.1 20.0 20.0 20.0 20.0 20.0 20.1 20.1 20.1 20.1 20.2 20.2 20.2 20.2 20.2 20.2 20.2 20.1 20.1 20.1 20.1 20.1 20.1 20.1 20.1 20.1 20.1 20.1 20.0 20.0 20.0 20.0 20.1 20.1 20.2 20.2 20.2 20.2 20.2 20.2 20.2 20.2 20.2 20.2 20.1 20.1 20.1 20.1 20.1 20.1 20.1 20.1 20.1 20.1 20.1 20.0 20.0 20.0 20.1 20.2 20.2 20.2 20.2 20.2 20.2 20.3 20.3 20.2 20.2 20.2 20.2 20.1 20.1 20.1 20.1 20.1 20.1 20.1 20.1 20.1 20.1 20.1 20.0 20.0 20.2 20.2 20.2 20.2 20.3 20.3 20.3 20.3 20.3 20.3 20.2 20.2 20.2 20.2 20.2 20.1 20.1 20.1 20.1 20.1 20.1 20.1 20.1 20.1 20.1 20.1 20.2 20.2 20.3 20.3 20.3 20.3 20.4 20.4 20.4 20.3 20.3 20.2 20.2 20.2 20.2 20.2 20.2 20.1 20.1 20.1 20.1 20.1 20.1 20.1 20.1 20.1 20.2 20.3 20.3 20.3 20.4 20.4 20.4 20.4 20.4 20.4 20.3 20.3 20.3 20.2 20.2 20.2 20.2 20.2 20.1 20.1 20.1 20.1 20.1 20.1 20.1 20.1 20.2 20.3 20.4 20.4 20.4 20.5 20.5 20.5 20.5 20.4 20.4 20.3 20.3 20.3 20.2 20.2 20.2 20.2 20.2 20.1 20.1 20.1 20.1 20.1 20.1 20.1 20.3 20.4 20.4 20.5 20.5 20.6 20.7 20.7 20.6 20.5 20.5 20.4 20.3 20.3 20.3 20.3 20.2 20.2 20.2 20.2 20.1 20.1 20.1 20.1 20.1 20.1 20.3 20.4 20.5 20.6 20.6 20.7 20.8 20.8 20.7 20.6 20.5 20.5 20.4 20.4 20.3 20.3 20.3 20.2 20.2 20.2 20.2 20.1 20.1 20.1 20.1 20.1 20.4 20.5 20.6 20.7 20.8 20.9 21.0 21.0 20.8 20.7 20.6 20.5 20.5 20.4 20.4 20.3 20.3 20.3 20.2 20.2 20.2 20.2 20.1 20.1 20.1 20.1 20.4 20.6 20.7 20.8 20.9 21.1 21.2 21.2 21.0 20.9 20.7 20.6 20.6 20.5 20.4 20.4 20.3 20.3 20.3 20.2 20.2 20.2 20.1 20.1 20.1 20.1 20.5 20.7 20.8 21.0 21.1 21.4 21.5 21.4 21.2 21.0 20.9 20.7 20.7 20.6 20.5 20.4 20.4 20.3 20.3 20.2 20.2 20.2 20.2 20.1 20.1 20.1 20.6 20.8 21.0 21.2 21.4 21.7 21.9 21.7 21.5 21.2 21.0 20.9 20.8 20.7 20.6 20.5 20.4 20.4 20.3 20.3 20.2 20.2 20.2 20.1 20.1 20.1 20.7 21.0 21.2 21.5 21.8 22.2 22.4 22.2 21.7 21.4 21.2 21.0 20.9 20.8 20.6 20.5 20.5 20.4 20.3 20.3 20.2 20.2 20.2 20.2 20.1 20.1 20.8 21.1 21.5 21.8 22.2 22.8 23.0 22.7 22.1 21.7 21.4 21.2 21.0 20.9 20.7 20.6 20.5 20.4 20.4 20.3 20.3 20.2 20.2 20.2 20.2 20.1 20.9 21.3 21.7 22.3 23.9 25.1 24.4 23.3 22.6 22.1 21.7 21.4 21.2 21.0 20.8 20.7 20.6 20.5 20.4 20.4 20.3 20.3 20.2 20.2 20.2 20.2 21.1 21.6 22.3 26.1 38.3 38.8 28.1 24.8 23.4 22.6 22.1 21.7 21.4 21.2 21.0 20.8 20.7 20.6 20.5 20.4 20.4 20.3 20.3 20.2 20.2 20.2 21.5 22.2 24.5 31.5 46.5 50.5 30.8 27.0 25.4 23.5 22.7 22.2 21.8 21.5 21.2 21.0 20.8 20.7 20.5 20.4 20.4 20.3 20.3 20.2 20.2 20.2 22.3 23.6 28.9 38.5 43.4 20.0 20.0 29.5 27.8 24.9 23.5 22.8 22.2 21.7 21.4 21.1 20.9 20.7 20.6 20.5 20.4 20.3 20.3 20.2 20.2 20.1 24.2 28.7 35.2 45.9 51.9 20.0 20.0 29.2 27.9 25.2 23.4 22.7 22.1 21.7 21.4 21.1 20.9 20.7 20.6 20.5 20.4 20.3 20.3 20.2 20.2 20.1 23.5 28.5 32.6 37.4 36.4 27.3 27.2 27.6 26.1 23.6 22.6 22.1 21.7 21.4 21.2 21.0 20.8 20.7 20.6 20.5 20.4 20.3 20.3 20.2 20.2 20.2 21.1 22.7 23.9 24.4 25.3 25.4 25.1 24.8 23.5 22.2 21.8 21.5 21.3 21.1 21.0 20.8 20.7 20.6 20.5 20.4 20.4 20.3 20.3 20.2 20.2 20.2 20.6 21.0 21.3 21.8 22.4 22.8 22.6 22.2 21.8 21.5 21.2 21.1 20.9 20.8 20.7 20.6 20.5 20.4 20.4 20.3 20.3 20.2 20.2 20.2 20.2 20.1 20.1 20.1 20.1 20.1 20.1 20.1 20.1 20.1 20.1 20.1 20.1 20.1 20.1 20.1 20.1 20.1 20.1 20.0 20.0 20.0 20.0 20.0 20.0 20.0 20.0 20.0 20.1 20.1 20.1 20.1 20.1 20.1 20.1 20.1 20.1 20.1 20.1 20.1 20.1 20.1 20.1 20.1 20.1 20.1 20.0 20.0 20.0 20.0 20.0 20.0 20.0 20.0 20.1 20.1 20.1 20.1 20.1 20.1 20.1 20.1 20.1 20.1 20.1 20.1 20.1 20.1 20.1 20.1 20.1 20.1 20.1 20.1 20.0 20.0 20.0 20.0 20.0 20.0 20.1 20.1 20.1 20.1 20.1 20.2 20.2 20.2 20.2 20.2 20.1 20.1 20.1 20.1 20.1 20.1 20.1 20.1 20.1 20.1 20.1 20.0 20.0 20.0 20.0 20.0 20.1 20.1 20.1 20.2 20.2 20.2 20.2 20.2 20.2 20.2 20.2 20.1 20.1 20.1 20.1 20.1 20.1 20.1 20.1 20.1 20.1 20.1 20.0 20.0 20.0 20.0 20.1 20.2 20.2 20.2 20.2 20.2 20.2 20.2 20.2 20.2 20.2 20.2 20.2 20.1 20.1 20.1 20.1 20.1 20.1 20.1 20.1 20.1 20.1 20.0 20.0 20.0 20.1 20.2 20.2 20.2 20.3 20.3 20.3 20.3 20.3 20.3 20.2 20.2 20.2 20.2 20.1 20.1 20.1 20.1 20.1 20.1 20.1 20.1 20.1 20.1 20.0 20.0 20.2 20.2 20.2 20.3 20.3 20.3 20.4 20.4 20.4 20.3 20.3 20.2 20.2 20.2 20.2 20.2 20.1 20.1 20.1 20.1 20.1 20.1 20.1 20.1 20.1 20.0 20.2 20.3 20.3 20.3 20.4 20.4 20.4 20.5 20.4 20.4 20.3 20.3 20.2 20.2 20.2 20.2 20.2 20.1 20.1 20.1 20.1 20.1 20.1 20.1 20.1 20.1 20.2 20.3 20.4 20.4 20.5 20.5 20.6 20.6 20.5 20.5 20.4 20.3 20.3 20.3 20.2 20.2 20.2 20.2 20.1 20.1 20.1 20.1 20.1 20.1 20.1 20.1 20.3 20.4 20.4 20.5 20.6 20.6 20.7 20.7 20.6 20.5 20.5 20.4 20.3 20.3 20.3 20.2 20.2 20.2 20.2 20.1 20.1 20.1 20.1 20.1 20.1 20.1 20.3 20.4 20.5 20.6 20.7 20.8 20.9 20.9 20.8 20.6 20.5 20.5 20.4 20.4 20.3 20.3 20.2 20.2 20.2 20.2 20.1 20.1 20.1 20.1 20.1 20.1 20.4 20.5 20.6 20.7 20.8 21.0 21.1 21.1 20.9 20.8 20.6 20.6 20.5 20.4 20.4 20.3 20.3 20.2 20.2 20.2 20.2 20.1 20.1 20.1 20.1 20.1 20.5 20.6 20.8 20.9 21.1 21.3 21.4 21.3 21.1 20.9 20.8 20.7 20.6 20.5 20.4 20.4 20.3 20.3 20.2 20.2 20.2 20.2 20.1 20.1 20.1 20.1 20.5 20.8 20.9 21.1 21.3 21.6 21.8 21.7 21.4 21.1 20.9 20.8 20.7 20.6 20.5 20.4 20.4 20.3 20.3 20.2 20.2 20.2 20.1 20.1 20.1 20.1 20.6 20.9 21.1 21.4 21.7 22.0 22.2 22.1 21.7 21.4 21.1 21.0 20.8 20.7 20.6 20.5 20.4 20.4 20.3 20.3 20.2 20.2 20.2 20.1 20.1 20.1 20.7 21.1 21.4 21.7 22.1 22.7 23.0 22.7 22.1 21.7 21.4 21.1 21.0 20.8 20.7 20.6 20.5 20.4 20.3 20.3 20.2 20.2 20.2 20.1 20.1 20.1 20.9 21.3 21.7 22.2 22.9 23.6 24.1 23.5 22.6 22.0 21.7 21.4 21.1 20.9 20.8 20.7 20.5 20.5 20.4 20.3 20.3 20.2 20.2 20.2 20.1 20.1 21.1 21.5 22.1 23.4 25.8 28.5 28.2 25.3 23.3 22.5 22.0 21.6 21.4 21.1 20.9 20.8 20.6 20.5 20.4 20.4 20.3 20.3 20.2 20.2 20.2 20.1 21.3 22.0 23.7 30.1 43.1 51.0 43.6 31.3 24.8 23.1 22.5 22.0 21.6 21.3 21.1 20.9 20.7 20.6 20.5 20.4 20.3 20.3 20.2 20.2 20.2 20.2 21.8 22.9 28.5 44.2 105.5 187.9 170.1 76.7 28.1 24.4 23.3 22.6 22.1 21.7 21.3 21.1 20.9 20.7 20.6 20.5 20.4 20.3 20.3 20.2 20.2 20.1 23.6 26.9 45.3 67.7 154.2 375.7 391.0 140.3 32.7 26.3 24.2 23.3 22.6 22.0 21.6 21.2 21.0 20.8 20.6 20.5 20.4 20.3 20.3 20.2 20.2 20.1 33.0 46.3 64.2 74.9 104.7 222.6 323.1 155.9 37.9 26.3 24.1 23.3 22.5 22.0 21.6 21.3 21.0 20.8 20.6 20.5 20.4 20.3 20.3 20.2 20.2 20.1 32.2 48.1 57.6 54.0 48.5 61.8 114.0 90.1 33.6 24.2 23.1 22.5 22.0 21.7 21.3 21.1 20.9 20.7 20.6 20.5 20.4 20.3 20.3 20.2 20.2 20.2 22.2 27.9 33.9 33.0 29.0 29.0 32.0 29.9 24.6 22.6 22.1 21.8 21.5 21.3 21.1 20.9 20.7 20.6 20.5 20.4 20.4 20.3 20.3 20.2 20.2 20.2 20.7 21.3 21.8 23.1 24.0 23.8 23.7 23.1 22.3 21.8 21.5 21.2 21.1 20.9 20.7 20.6 20.5 20.5 20.4 20.3 20.3 20.2 20.2 20.2 20.1 20.1 20.0 20.1 20.1 20.1 20.1 20.1 20.1 20.1 20.1 20.1 20.1 20.1 20.1 20.1 20.0 20.0 20.0 20.0 20.0 20.0 20.0 20.0 20.0 20.0 20.0 20.0 20.1 20.1 20.1 20.1 20.1 20.1 20.1 20.1 20.1 20.1 20.1 20.1 20.1 20.1 20.1 20.0 20.0 20.0 20.0 20.0 20.0 20.0 20.0 20.0 20.0 20.0 20.1 20.1 20.1 20.1 20.1 20.1 20.1 20.1 20.1 20.1 20.1 20.1 20.1 20.1 20.1 20.1 20.1 20.0 20.0 20.0 20.0 20.0 20.0 20.0 20.0 20.0 20.1 20.1 20.1 20.1 20.1 20.1 20.1 20.2 20.2 20.2 20.1 20.1 20.1 20.1 20.1 20.1 20.1 20.1 20.1 20.0 20.0 20.0 20.0 20.0 20.0 20.0 20.1 20.1 20.1 20.1 20.2 20.2 20.2 20.2 20.2 20.2 20.2 20.1 20.1 20.1 20.1 20.1 20.1 20.1 20.1 20.1 20.0 20.0 20.0 20.0 20.0 20.0 20.1 20.1 20.2 20.2 20.2 20.2 20.2 20.2 20.2 20.2 20.2 20.2 20.1 20.1 20.1 20.1 20.1 20.1 20.1 20.1 20.1 20.0 20.0 20.0 20.0 20.0 20.1 20.2 20.2 20.2 20.2 20.3 20.3 20.3 20.3 20.3 20.2 20.2 20.2 20.1 20.1 20.1 20.1 20.1 20.1 20.1 20.1 20.1 20.0 20.0 20.0 20.0 20.2 20.2 20.2 20.3 20.3 20.3 20.4 20.4 20.4 20.3 20.3 20.2 20.2 20.2 20.2 20.1 20.1 20.1 20.1 20.1 20.1 20.1 20.1 20.0 20.0 20.0 20.2 20.2 20.3 20.3 20.4 20.4 20.5 20.5 20.4 20.4 20.3 20.3 20.2 20.2 20.2 20.2 20.1 20.1 20.1 20.1 20.1 20.1 20.1 20.1 20.0 20.0 20.2 20.3 20.4 20.4 20.5 20.5 20.6 20.6 20.5 20.5 20.4 20.3 20.3 20.3 20.2 20.2 20.2 20.1 20.1 20.1 20.1 20.1 20.1 20.1 20.1 20.0 20.3 20.4 20.4 20.5 20.6 20.7 20.7 20.7 20.7 20.6 20.5 20.4 20.3 20.3 20.3 20.2 20.2 20.2 20.2 20.1 20.1 20.1 20.1 20.1 20.1 20.1 20.3 20.5 20.5 20.6 20.7 20.9 21.0 20.9 20.8 20.7 20.6 20.5 20.4 20.4 20.3 20.3 20.2 20.2 20.2 20.1 20.1 20.1 20.1 20.1 20.1 20.1 20.4 20.6 20.7 20.8 20.9 21.1 21.2 21.2 21.0 20.8 20.7 20.6 20.5 20.4 20.4 20.3 20.3 20.2 20.2 20.2 20.1 20.1 20.1 20.1 20.1 20.1 20.5 20.7 20.8 21.0 21.2 21.4 21.6 21.5 21.3 21.0 20.8 20.7 20.6 20.5 20.4 20.4 20.3 20.3 20.2 20.2 20.2 20.1 20.1 20.1 20.1 20.1 20.6 20.8 21.0 21.2 21.5 21.9 22.1 21.9 21.6 21.3 21.0 20.9 20.7 20.6 20.5 20.4 20.4 20.3 20.3 20.2 20.2 20.2 20.1 20.1 20.1 20.1 20.7 21.0 21.2 21.5 21.9 22.4 22.6 22.5 22.0 21.6 21.3 21.1 20.9 20.8 20.6 20.5 20.4 20.4 20.3 20.2 20.2 20.2 20.1 20.1 20.1 20.1 20.8 21.2 21.6 22.1 22.7 23.5 23.9 23.4 22.5 22.0 21.6 21.3 21.1 20.9 20.7 20.6 20.5 20.4 20.3 20.3 20.2 20.2 20.2 20.1 20.1 20.1 21.0 21.5 22.0 23.6 25.3 26.5 27.6 26.2 23.4 22.4 22.0 21.6 21.3 21.1 20.9 20.7 20.6 20.5 20.4 20.3 20.3 20.2 20.2 20.1 20.1 20.1 21.2 21.8 23.3 31.9 42.0 43.4 44.1 38.8 27.7 23.2 22.4 21.9 21.6 21.3 21.0 20.8 20.7 20.5 20.4 20.4 20.3 20.2 20.2 20.2 20.1 20.1 21.6 22.7 27.6 54.7 88.0 96.5 95.5 69.9 34.3 24.2 23.0 22.4 21.9 21.5 21.2 21.0 20.8 20.6 20.5 20.4 20.3 20.3 20.2 20.2 20.2 20.1 22.3 25.1 36.8 83.2 189.8 274.8 265.2 148.9 42.2 26.1 24.2 23.2 22.5 22.0 21.5 21.2 20.9 20.7 20.6 20.5 20.4 20.3 20.2 20.2 20.2 20.1 24.5 31.2 63.9 125.7 251.4 392.1 400.3 211.4 47.3 28.8 25.5 24.1 23.1 22.4 21.8 21.4 21.1 20.8 20.7 20.5 20.4 20.3 20.2 20.2 20.1 20.1 37.5 62.4 99.6 137.4 177.2 256.1 339.5 236.9 67.4 29.4 25.3 24.0 23.1 22.4 21.8 21.4 21.1 20.9 20.7 20.5 20.4 20.3 20.3 20.2 20.2 20.1 36.4 63.7 85.9 96.8 86.4 92.7 180.2 177.0 68.1 27.3 23.9 23.1 22.4 21.9 21.5 21.2 21.0 20.8 20.6 20.5 20.4 20.3 20.3 20.2 20.2 20.1 22.7 30.2 40.7 54.2 48.3 35.4 57.5 62.3 36.3 24.2 22.7 22.2 21.8 21.5 21.2 21.0 20.8 20.7 20.5 20.4 20.4 20.3 20.3 20.2 20.2 20.1 20.8 21.5 22.6 28.2 29.4 25.8 27.0 26.1 23.2 22.2 21.8 21.5 21.2 21.0 20.8 20.7 20.6 20.5 20.4 20.3 20.3 20.2 20.2 20.2 20.1 20.1 20.0 20.1 20.1 20.1 20.1 20.1 20.1 20.1 20.1 20.1 20.1 20.1 20.1 20.1 20.0 20.0 20.0 20.0 20.0 20.0 20.0 20.0 20.0 20.0 20.0 20.0 20.1 20.1 20.1 20.1 20.1 20.1 20.1 20.1 20.1 20.1 20.1 20.1 20.1 20.1 20.1 20.0 20.0 20.0 20.0 20.0 20.0 20.0 20.0 20.0 20.0 20.0 20.1 20.1 20.1 20.1 20.1 20.1 20.1 20.1 20.1 20.1 20.1 20.1 20.1 20.1 20.1 20.1 20.1 20.0 20.0 20.0 20.0 20.0 20.0 20.0 20.0 20.0 20.1 20.1 20.1 20.1 20.1 20.1 20.2 20.2 20.2 20.2 20.1 20.1 20.1 20.1 20.1 20.1 20.1 20.1 20.1 20.0 20.0 20.0 20.0 20.0 20.0 20.0 20.1 20.1 20.1 20.2 20.2 20.2 20.2 20.2 20.2 20.2 20.2 20.1 20.1 20.1 20.1 20.1 20.1 20.1 20.1 20.1 20.0 20.0 20.0 20.0 20.0 20.0 20.1 20.1 20.2 20.2 20.2 20.2 20.2 20.3 20.3 20.2 20.2 20.2 20.1 20.1 20.1 20.1 20.1 20.1 20.1 20.1 20.1 20.0 20.0 20.0 20.0 20.0 20.1 20.2 20.2 20.2 20.2 20.3 20.3 20.3 20.3 20.3 20.2 20.2 20.2 20.1 20.1 20.1 20.1 20.1 20.1 20.1 20.1 20.1 20.0 20.0 20.0 20.0 20.2 20.2 20.2 20.3 20.3 20.3 20.4 20.4 20.4 20.3 20.3 20.2 20.2 20.2 20.2 20.1 20.1 20.1 20.1 20.1 20.1 20.1 20.1 20.0 20.0 20.0 20.2 20.2 20.3 20.3 20.4 20.4 20.5 20.5 20.5 20.4 20.3 20.3 20.2 20.2 20.2 20.2 20.1 20.1 20.1 20.1 20.1 20.1 20.1 20.1 20.0 20.0 20.2 20.3 20.4 20.4 20.5 20.5 20.6 20.6 20.5 20.5 20.4 20.3 20.3 20.3 20.2 20.2 20.2 20.1 20.1 20.1 20.1 20.1 20.1 20.1 20.1 20.0 20.3 20.4 20.4 20.5 20.6 20.6 20.7 20.7 20.7 20.6 20.5 20.4 20.3 20.3 20.3 20.2 20.2 20.2 20.2 20.1 20.1 20.1 20.1 20.1 20.1 20.1 20.3 20.4 20.5 20.6 20.7 20.8 20.9 20.9 20.8 20.7 20.6 20.5 20.4 20.4 20.3 20.3 20.2 20.2 20.2 20.2 20.1 20.1 20.1 20.1 20.1 20.1 20.4 20.5 20.6 20.7 20.9 21.0 21.1 21.2 21.0 20.8 20.7 20.6 20.5 20.4 20.4 20.3 20.3 20.2 20.2 20.2 20.1 20.1 20.1 20.1 20.1 20.1 20.5 20.6 20.8 20.9 21.1 21.3 21.4 21.5 21.2 21.0 20.8 20.7 20.6 20.5 20.5 20.4 20.3 20.3 20.2 20.2 20.2 20.1 20.1 20.1 20.1 20.1 20.5 20.7 20.9 21.1 21.4 21.6 21.8 21.9 21.6 21.2 21.0 20.9 20.7 20.6 20.5 20.5 20.4 20.3 20.3 20.2 20.2 20.2 20.1 20.1 20.1 20.1 20.6 20.9 21.2 21.4 21.7 22.0 22.3 22.4 22.0 21.5 21.3 21.1 20.9 20.8 20.6 20.5 20.4 20.4 20.3 20.3 20.2 20.2 20.1 20.1 20.1 20.1 20.8 21.1 21.6 22.3 22.8 23.4 23.9 23.4 22.5 21.9 21.6 21.3 21.1 20.9 20.7 20.6 20.5 20.4 20.3 20.3 20.2 20.2 20.2 20.1 20.1 20.1 20.9 21.5 23.1 25.5 27.2 29.1 30.9 28.1 23.7 22.4 21.9 21.6 21.3 21.1 20.9 20.7 20.6 20.5 20.4 20.3 20.3 20.2 20.2 20.1 20.1 20.1 21.2 22.7 28.5 44.0 57.3 55.9 54.9 47.3 30.4 23.4 22.4 22.0 21.6 21.3 21.0 20.8 20.7 20.6 20.4 20.4 20.3 20.3 20.2 20.2 20.1 20.1 22.2 30.6 57.7 108.2 140.2 117.7 100.8 79.7 38.8 24.7 23.1 22.4 21.9 21.5 21.2 21.0 20.8 20.6 20.5 20.4 20.3 20.3 20.2 20.2 20.2 20.1 23.3 35.4 76.8 165.1 257.6 261.7 229.5 158.7 60.2 28.7 24.9 23.3 22.6 22.0 21.5 21.2 21.0 20.7 20.6 20.5 20.4 20.3 20.2 20.2 20.2 20.1 24.3 33.8 81.1 192.6 317.6 376.3 363.4 238.3 88.2 37.5 27.6 24.4 23.2 22.4 21.9 21.4 21.1 20.9 20.7 20.5 20.4 20.3 20.2 20.2 20.2 20.1 29.2 48.2 97.6 176.9 228.8 292.8 354.7 274.5 120.1 41.6 27.5 24.3 23.1 22.4 21.8 21.4 21.1 20.9 20.7 20.5 20.4 20.3 20.3 20.2 20.2 20.1 27.9 45.7 78.1 119.1 118.3 130.9 215.5 213.9 101.4 33.6 24.6 23.1 22.5 21.9 21.5 21.2 21.0 20.8 20.6 20.5 20.4 20.3 20.3 20.2 20.2 20.2 21.8 25.6 38.8 66.0 67.7 48.1 76.1 83.2 42.5 24.7 22.8 22.2 21.8 21.5 21.2 21.0 20.8 20.7 20.6 20.5 20.4 20.3 20.3 20.2 20.2 20.2 20.8 21.5 23.4 29.3 31.7 28.5 28.8 27.6 23.7 22.3 21.9 21.6 21.3 21.1 20.9 20.7 20.6 20.5 20.4 20.3 20.3 20.2 20.2 20.2 20.1 20.1 20.1 20.1 20.1 20.1 20.1 20.1 20.1 20.1 20.1 20.1 20.1 20.1 20.1 20.1 20.1 20.1 20.0 20.0 20.0 20.0 20.0 20.0 20.0 20.0 20.0 20.0 20.1 20.1 20.1 20.1 20.1 20.1 20.1 20.1 20.1 20.1 20.1 20.1 20.1 20.1 20.1 20.1 20.1 20.0 20.0 20.0 20.0 20.0 20.0 20.0 20.0 20.0 20.1 20.1 20.1 20.1 20.1 20.1 20.1 20.2 20.2 20.2 20.1 20.1 20.1 20.1 20.1 20.1 20.1 20.1 20.0 20.0 20.0 20.0 20.0 20.0 20.0 20.0 20.1 20.1 20.1 20.1 20.1 20.2 20.2 20.2 20.2 20.2 20.2 20.1 20.1 20.1 20.1 20.1 20.1 20.1 20.1 20.1 20.0 20.0 20.0 20.0 20.0 20.0 20.1 20.1 20.1 20.2 20.2 20.2 20.2 20.2 20.2 20.2 20.2 20.1 20.1 20.1 20.1 20.1 20.1 20.1 20.1 20.1 20.1 20.0 20.0 20.0 20.0 20.0 20.1 20.2 20.2 20.2 20.2 20.2 20.2 20.3 20.3 20.2 20.2 20.2 20.1 20.1 20.1 20.1 20.1 20.1 20.1 20.1 20.1 20.1 20.0 20.0 20.0 20.0 20.1 20.2 20.2 20.2 20.2 20.3 20.3 20.3 20.3 20.3 20.2 20.2 20.2 20.2 20.1 20.1 20.1 20.1 20.1 20.1 20.1 20.1 20.1 20.0 20.0 20.0 20.2 20.2 20.2 20.3 20.3 20.3 20.4 20.4 20.4 20.3 20.3 20.2 20.2 20.2 20.2 20.2 20.1 20.1 20.1 20.1 20.1 20.1 20.1 20.1 20.0 20.0 20.2 20.3 20.3 20.3 20.4 20.4 20.4 20.5 20.5 20.4 20.3 20.3 20.2 20.2 20.2 20.2 20.2 20.1 20.1 20.1 20.1 20.1 20.1 20.1 20.1 20.0 20.2 20.3 20.3 20.4 20.4 20.5 20.5 20.6 20.5 20.5 20.4 20.3 20.3 20.3 20.2 20.2 20.2 20.2 20.1 20.1 20.1 20.1 20.1 20.1 20.1 20.1 20.3 20.3 20.4 20.5 20.5 20.6 20.7 20.7 20.6 20.5 20.5 20.4 20.3 20.3 20.3 20.2 20.2 20.2 20.2 20.1 20.1 20.1 20.1 20.1 20.1 20.1 20.3 20.4 20.5 20.5 20.6 20.7 20.8 20.8 20.8 20.7 20.5 20.5 20.4 20.4 20.3 20.3 20.3 20.2 20.2 20.2 20.1 20.1 20.1 20.1 20.1 20.1 20.3 20.5 20.6 20.6 20.7 20.8 21.0 21.0 20.9 20.8 20.7 20.6 20.5 20.4 20.4 20.3 20.3 20.3 20.2 20.2 20.2 20.1 20.1 20.1 20.1 20.1 20.4 20.5 20.6 20.8 20.9 21.0 21.2 21.3 21.1 20.9 20.8 20.7 20.6 20.5 20.5 20.4 20.3 20.3 20.3 20.2 20.2 20.2 20.1 20.1 20.1 20.1 20.5 20.6 20.8 20.9 21.0 21.1 21.4 21.6 21.4 21.1 20.9 20.8 20.7 20.6 20.5 20.5 20.4 20.3 20.3 20.2 20.2 20.2 20.1 20.1 20.1 20.1 20.5 20.8 21.2 21.3 21.2 21.3 21.7 22.0 21.7 21.4 21.1 21.0 20.8 20.7 20.6 20.5 20.4 20.4 20.3 20.3 20.2 20.2 20.2 20.1 20.1 20.1 20.7 21.3 22.5 22.9 22.4 22.4 23.1 23.0 22.2 21.7 21.4 21.2 21.0 20.8 20.7 20.6 20.5 20.4 20.4 20.3 20.2 20.2 20.2 20.1 20.1 20.1 21.1 23.3 27.1 28.0 25.6 26.1 28.1 26.1 23.1 22.1 21.7 21.4 21.2 21.0 20.8 20.7 20.6 20.5 20.4 20.3 20.3 20.2 20.2 20.2 20.1 20.1 22.0 28.5 39.7 51.3 48.5 41.9 43.8 37.3 27.1 22.8 22.1 21.7 21.4 21.2 21.0 20.8 20.7 20.5 20.5 20.4 20.3 20.3 20.2 20.2 20.2 20.1 26.3 52.5 101.3 146.1 122.1 68.3 55.9 47.2 32.1 24.6 22.9 22.2 21.8 21.4 21.2 20.9 20.8 20.6 20.5 20.4 20.4 20.3 20.2 20.2 20.2 20.2 29.1 68.0 149.4 238.3 217.2 134.3 112.1 99.5 61.9 33.0 26.4 23.2 22.3 21.8 21.4 21.1 20.9 20.7 20.6 20.5 20.4 20.3 20.3 20.2 20.2 20.1 26.9 53.4 134.3 252.9 254.3 213.8 232.1 202.0 120.0 54.0 33.4 25.2 22.9 22.2 21.7 21.3 21.1 20.8 20.7 20.5 20.4 20.3 20.3 20.2 20.2 20.1 25.2 39.0 95.1 184.9 179.8 215.1 300.9 259.6 147.2 57.5 32.9 25.1 22.8 22.2 21.7 21.3 21.1 20.8 20.7 20.5 20.4 20.3 20.3 20.2 20.2 20.2 23.4 29.6 56.6 100.8 100.3 135.2 210.3 184.6 92.9 36.1 25.7 23.0 22.2 21.8 21.4 21.1 20.9 20.8 20.6 20.5 20.4 20.4 20.3 20.2 20.2 20.2 21.6 23.5 36.3 56.1 62.1 57.8 73.8 66.2 32.9 23.8 22.6 22.0 21.7 21.4 21.2 21.0 20.8 20.7 20.6 20.5 20.4 20.3 20.3 20.2 20.2 20.2 20.8 21.6 23.8 26.7 28.7 28.9 27.9 26.1 23.4 22.1 21.7 21.5 21.2 21.0 20.8 20.7 20.6 20.5 20.4 20.4 20.3 20.3 20.2 20.2 20.2 20.1 20.1 20.1 20.1 20.1 20.1 20.1 20.1 20.1 20.1 20.1 20.1 20.1 20.1 20.1 20.1 20.1 20.1 20.1 20.0 20.0 20.0 20.0 20.0 20.0 20.0 20.0 20.1 20.1 20.1 20.1 20.1 20.1 20.1 20.1 20.1 20.1 20.1 20.1 20.1 20.1 20.1 20.1 20.1 20.1 20.1 20.0 20.0 20.0 20.0 20.0 20.0 20.0 20.1 20.1 20.1 20.1 20.1 20.1 20.1 20.2 20.2 20.2 20.1 20.1 20.1 20.1 20.1 20.1 20.1 20.1 20.1 20.1 20.0 20.0 20.0 20.0 20.0 20.0 20.1 20.1 20.1 20.1 20.1 20.2 20.2 20.2 20.2 20.2 20.2 20.1 20.1 20.1 20.1 20.1 20.1 20.1 20.1 20.1 20.1 20.0 20.0 20.0 20.0 20.0 20.1 20.1 20.2 20.2 20.2 20.2 20.2 20.2 20.2 20.2 20.2 20.2 20.1 20.1 20.1 20.1 20.1 20.1 20.1 20.1 20.1 20.1 20.0 20.0 20.0 20.0 20.1 20.2 20.2 20.2 20.2 20.2 20.2 20.3 20.3 20.2 20.2 20.2 20.2 20.1 20.1 20.1 20.1 20.1 20.1 20.1 20.1 20.1 20.1 20.1 20.0 20.0 20.1 20.2 20.2 20.2 20.2 20.3 20.3 20.3 20.3 20.3 20.2 20.2 20.2 20.2 20.1 20.1 20.1 20.1 20.1 20.1 20.1 20.1 20.1 20.1 20.1 20.0 20.2 20.2 20.2 20.3 20.3 20.3 20.3 20.4 20.4 20.3 20.3 20.2 20.2 20.2 20.2 20.2 20.1 20.1 20.1 20.1 20.1 20.1 20.1 20.1 20.1 20.1 20.2 20.2 20.3 20.3 20.3 20.4 20.4 20.4 20.4 20.4 20.3 20.3 20.2 20.2 20.2 20.2 20.2 20.1 20.1 20.1 20.1 20.1 20.1 20.1 20.1 20.1 20.2 20.3 20.3 20.3 20.4 20.4 20.5 20.5 20.5 20.4 20.4 20.3 20.3 20.3 20.2 20.2 20.2 20.2 20.2 20.1 20.1 20.1 20.1 20.1 20.1 20.1 20.2 20.3 20.4 20.4 20.4 20.5 20.6 20.6 20.6 20.5 20.4 20.4 20.3 20.3 20.3 20.2 20.2 20.2 20.2 20.2 20.1 20.1 20.1 20.1 20.1 20.1 20.3 20.4 20.4 20.5 20.5 20.6 20.7 20.7 20.7 20.6 20.5 20.4 20.4 20.4 20.3 20.3 20.3 20.2 20.2 20.2 20.2 20.1 20.1 20.1 20.1 20.1 20.3 20.4 20.5 20.5 20.6 20.7 20.8 20.9 20.8 20.7 20.6 20.5 20.5 20.4 20.4 20.3 20.3 20.3 20.2 20.2 20.2 20.2 20.1 20.1 20.1 20.1 20.3 20.5 20.5 20.6 20.7 20.8 20.9 21.0 21.0 20.8 20.7 20.6 20.5 20.5 20.4 20.4 20.3 20.3 20.3 20.2 20.2 20.2 20.1 20.1 20.1 20.1 20.4 20.5 20.6 20.7 20.7 20.9 21.1 21.3 21.2 21.0 20.8 20.7 20.6 20.6 20.5 20.4 20.4 20.3 20.3 20.2 20.2 20.2 20.2 20.1 20.1 20.1 20.5 21.2 21.4 21.0 20.8 21.0 21.3 21.6 21.4 21.2 21.0 20.9 20.8 20.7 20.6 20.5 20.4 20.4 20.3 20.3 20.2 20.2 20.2 20.1 20.1 20.1 21.6 24.0 25.4 23.7 21.8 21.6 22.1 22.2 21.7 21.4 21.2 21.0 20.9 20.8 20.7 20.6 20.5 20.4 20.3 20.3 20.2 20.2 20.2 20.2 20.1 20.1 25.6 32.8 34.9 28.9 22.9 22.3 23.4 23.2 22.3 21.7 21.4 21.2 21.0 20.9 20.7 20.6 20.5 20.4 20.4 20.3 20.3 20.2 20.2 20.2 20.1 20.1 29.1 42.9 50.8 44.7 30.5 26.0 29.7 27.7 24.2 22.5 21.8 21.5 21.2 21.0 20.9 20.7 20.6 20.5 20.4 20.4 20.3 20.3 20.2 20.2 20.2 20.2 38.5 80.6 123.9 115.3 58.2 30.1 35.9 33.8 29.7 25.9 23.0 21.9 21.5 21.2 21.0 20.8 20.7 20.6 20.5 20.4 20.4 20.3 20.3 20.2 20.2 20.2 52.0 121.4 201.6 191.5 90.4 40.8 49.0 57.9 57.4 42.1 30.8 23.3 22.0 21.6 21.3 21.0 20.8 20.7 20.6 20.5 20.4 20.3 20.3 20.2 20.2 20.2 47.4 101.9 189.7 201.8 114.7 94.6 126.1 137.5 119.9 75.3 46.2 27.7 22.6 21.9 21.5 21.2 20.9 20.7 20.6 20.5 20.4 20.3 20.3 20.2 20.2 20.2 33.3 54.6 108.6 134.4 101.7 135.3 196.8 183.9 125.7 70.7 44.5 27.7 22.5 21.9 21.5 21.2 20.9 20.8 20.6 20.5 20.4 20.3 20.3 20.2 20.2 20.2 26.0 29.0 44.0 62.6 66.1 99.6 144.0 117.5 61.2 35.7 28.7 23.3 21.9 21.5 21.2 21.0 20.8 20.7 20.6 20.5 20.4 20.3 20.3 20.2 20.2 20.2 22.6 23.8 30.1 39.3 42.6 48.8 57.8 44.3 26.6 23.7 22.5 21.8 21.4 21.2 21.0 20.9 20.7 20.6 20.5 20.4 20.4 20.3 20.3 20.3 20.2 20.2 21.1 22.2 24.2 26.8 26.8 26.8 26.7 24.3 22.8 21.9 21.5 21.3 21.1 20.9 20.8 20.6 20.5 20.5 20.4 20.3 20.3 20.3 20.2 20.2 20.2 20.2 20.1 20.1 20.1 20.1 20.1 20.1 20.1 20.1 20.1 20.1 20.1 20.1 20.1 20.1 20.1 20.1 20.1 20.1 20.1 20.0 20.0 20.0 20.0 20.0 20.0 20.0 20.1 20.1 20.1 20.1 20.1 20.1 20.1 20.1 20.1 20.1 20.1 20.1 20.1 20.1 20.1 20.1 20.1 20.1 20.1 20.1 20.0 20.0 20.0 20.0 20.0 20.0 20.1 20.1 20.1 20.1 20.1 20.1 20.1 20.1 20.2 20.2 20.1 20.1 20.1 20.1 20.1 20.1 20.1 20.1 20.1 20.1 20.1 20.0 20.0 20.0 20.0 20.0 20.1 20.1 20.1 20.1 20.1 20.1 20.1 20.2 20.2 20.2 20.2 20.1 20.1 20.1 20.1 20.1 20.1 20.1 20.1 20.1 20.1 20.1 20.1 20.0 20.0 20.0 20.1 20.1 20.1 20.2 20.2 20.2 20.2 20.2 20.2 20.2 20.2 20.2 20.1 20.1 20.1 20.1 20.1 20.1 20.1 20.1 20.1 20.1 20.1 20.1 20.0 20.0 20.1 20.1 20.2 20.2 20.2 20.2 20.2 20.2 20.2 20.2 20.2 20.2 20.1 20.1 20.1 20.1 20.1 20.1 20.1 20.1 20.1 20.1 20.1 20.1 20.1 20.0 20.1 20.2 20.2 20.2 20.2 20.2 20.2 20.3 20.3 20.3 20.2 20.2 20.2 20.2 20.1 20.1 20.1 20.1 20.1 20.1 20.1 20.1 20.1 20.1 20.1 20.1 20.1 20.2 20.2 20.2 20.2 20.3 20.3 20.3 20.3 20.3 20.3 20.2 20.2 20.2 20.2 20.2 20.1 20.1 20.1 20.1 20.1 20.1 20.1 20.1 20.1 20.1 20.2 20.2 20.2 20.3 20.3 20.3 20.3 20.4 20.4 20.3 20.3 20.2 20.2 20.2 20.2 20.2 20.2 20.1 20.1 20.1 20.1 20.1 20.1 20.1 20.1 20.1 20.2 20.2 20.3 20.3 20.3 20.4 20.4 20.4 20.4 20.4 20.3 20.3 20.3 20.2 20.2 20.2 20.2 20.2 20.1 20.1 20.1 20.1 20.1 20.1 20.1 20.1 20.2 20.3 20.3 20.3 20.4 20.4 20.5 20.5 20.5 20.4 20.4 20.3 20.3 20.3 20.3 20.2 20.2 20.2 20.2 20.2 20.1 20.1 20.1 20.1 20.1 20.1 20.2 20.3 20.3 20.4 20.4 20.5 20.6 20.6 20.6 20.5 20.4 20.4 20.3 20.3 20.3 20.3 20.2 20.2 20.2 20.2 20.2 20.1 20.1 20.1 20.1 20.1 20.3 20.3 20.4 20.4 20.5 20.6 20.7 20.7 20.7 20.6 20.5 20.5 20.4 20.4 20.3 20.3 20.3 20.2 20.2 20.2 20.2 20.1 20.1 20.1 20.1 20.1 20.3 20.4 20.4 20.5 20.5 20.6 20.8 20.9 20.8 20.7 20.6 20.5 20.5 20.4 20.4 20.3 20.3 20.3 20.2 20.2 20.2 20.2 20.1 20.1 20.1 20.1 20.3 20.4 20.5 20.5 20.6 20.7 20.9 21.0 21.0 20.8 20.7 20.6 20.6 20.5 20.4 20.4 20.3 20.3 20.3 20.2 20.2 20.2 20.2 20.1 20.1 20.1 20.6 21.8 21.8 20.7 20.6 20.8 21.1 21.3 21.2 21.0 20.8 20.7 20.7 20.6 20.5 20.4 20.4 20.3 20.3 20.2 20.2 20.2 20.2 20.1 20.1 20.1 24.4 30.6 29.7 23.4 21.2 21.1 21.4 21.6 21.4 21.2 21.0 20.9 20.8 20.7 20.6 20.5 20.4 20.4 20.3 20.3 20.2 20.2 20.2 20.2 20.1 20.1 36.7 46.4 39.1 25.4 21.7 21.7 21.8 22.0 21.8 21.4 21.2 21.0 20.9 20.8 20.6 20.6 20.5 20.4 20.3 20.3 20.3 20.2 20.2 20.2 20.2 20.1 44.5 56.6 47.3 28.5 22.8 23.8 23.8 23.9 23.7 22.7 21.5 21.2 21.0 20.9 20.7 20.6 20.5 20.5 20.4 20.3 20.3 20.3 20.2 20.2 20.2 20.2 63.3 103.7 100.8 51.8 26.4 27.9 27.7 30.3 34.3 30.7 23.5 21.6 21.3 21.1 20.9 20.7 20.6 20.5 20.4 20.4 20.3 20.3 20.2 20.2 20.2 20.2 97.8 167.2 163.5 82.1 43.1 45.1 41.3 50.9 63.8 58.3 37.5 23.8 21.7 21.3 21.1 20.9 20.7 20.6 20.5 20.4 20.3 20.3 20.2 20.2 20.2 20.2 94.9 149.3 152.6 91.8 76.4 93.9 90.2 105.3 113.2 94.1 60.0 30.4 22.4 21.6 21.3 21.0 20.8 20.6 20.5 20.4 20.4 20.3 20.2 20.2 20.2 20.2 61.5 77.2 85.1 65.6 78.5 106.4 109.5 111.7 98.0 81.0 57.0 30.6 22.3 21.5 21.2 21.0 20.8 20.6 20.5 20.4 20.4 20.3 20.3 20.2 20.2 20.2 37.0 34.7 36.4 36.9 48.5 64.7 70.1 58.1 41.5 40.1 33.9 23.8 21.6 21.2 21.0 20.8 20.7 20.6 20.5 20.4 20.4 20.3 20.3 20.2 20.2 20.2 25.8 26.7 28.6 32.0 32.3 36.7 38.8 30.9 26.1 24.7 22.8 21.5 21.2 21.0 20.9 20.7 20.6 20.5 20.5 20.4 20.3 20.3 20.3 20.2 20.2 20.2 22.3 24.2 25.7 28.0 26.9 25.7 25.7 23.7 22.5 21.7 21.3 21.1 20.9 20.8 20.7 20.6 20.5 20.4 20.4 20.3 20.3 20.2 20.2 20.2 20.2 20.2 20.1 20.1 20.1 20.1 20.1 20.1 20.1 20.1 20.1 20.1 20.1 20.1 20.1 20.1 20.1 20.1 20.1 20.1 20.1 20.1 20.0 20.0 20.0 20.0 20.0 20.0 20.1 20.1 20.1 20.1 20.1 20.1 20.1 20.1 20.1 20.1 20.1 20.1 20.1 20.1 20.1 20.1 20.1 20.1 20.1 20.1 20.1 20.0 20.0 20.0 20.0 20.0 20.1 20.1 20.1 20.1 20.1 20.1 20.1 20.1 20.1 20.1 20.1 20.1 20.1 20.1 20.1 20.1 20.1 20.1 20.1 20.1 20.1 20.1 20.0 20.0 20.0 20.0 20.1 20.1 20.1 20.1 20.1 20.1 20.1 20.1 20.2 20.2 20.1 20.1 20.1 20.1 20.1 20.1 20.1 20.1 20.1 20.1 20.1 20.1 20.1 20.0 20.0 20.0 20.1 20.1 20.1 20.1 20.1 20.1 20.1 20.2 20.2 20.2 20.2 20.1 20.1 20.1 20.1 20.1 20.1 20.1 20.1 20.1 20.1 20.1 20.1 20.1 20.0 20.0 20.1 20.1 20.1 20.2 20.2 20.2 20.2 20.2 20.2 20.2 20.2 20.2 20.1 20.1 20.1 20.1 20.1 20.1 20.1 20.1 20.1 20.1 20.1 20.1 20.1 20.1 20.1 20.1 20.2 20.2 20.2 20.2 20.2 20.2 20.2 20.2 20.2 20.2 20.2 20.1 20.1 20.1 20.1 20.1 20.1 20.1 20.1 20.1 20.1 20.1 20.1 20.1 20.1 20.2 20.2 20.2 20.2 20.2 20.2 20.3 20.3 20.2 20.2 20.2 20.2 20.2 20.1 20.1 20.1 20.1 20.1 20.1 20.1 20.1 20.1 20.1 20.1 20.1 20.1 20.2 20.2 20.2 20.2 20.3 20.3 20.3 20.3 20.3 20.3 20.2 20.2 20.2 20.2 20.2 20.1 20.1 20.1 20.1 20.1 20.1 20.1 20.1 20.1 20.1 20.2 20.2 20.2 20.3 20.3 20.3 20.3 20.3 20.3 20.3 20.3 20.3 20.2 20.2 20.2 20.2 20.2 20.2 20.1 20.1 20.1 20.1 20.1 20.1 20.1 20.1 20.2 20.2 20.3 20.3 20.3 20.4 20.4 20.4 20.4 20.4 20.3 20.3 20.3 20.2 20.2 20.2 20.2 20.2 20.2 20.1 20.1 20.1 20.1 20.1 20.1 20.1 20.2 20.3 20.3 20.3 20.4 20.4 20.5 20.5 20.5 20.4 20.4 20.3 20.3 20.3 20.3 20.2 20.2 20.2 20.2 20.2 20.1 20.1 20.1 20.1 20.1 20.1 20.2 20.3 20.3 20.4 20.4 20.5 20.5 20.6 20.6 20.5 20.4 20.4 20.4 20.3 20.3 20.3 20.2 20.2 20.2 20.2 20.2 20.1 20.1 20.1 20.1 20.1 20.3 20.3 20.3 20.4 20.5 20.5 20.6 20.7 20.7 20.6 20.5 20.5 20.4 20.4 20.3 20.3 20.3 20.2 20.2 20.2 20.2 20.1 20.1 20.1 20.1 20.1 20.3 20.4 20.4 20.4 20.5 20.6 20.7 20.9 20.8 20.7 20.6 20.5 20.5 20.4 20.4 20.3 20.3 20.3 20.2 20.2 20.2 20.2 20.1 20.1 20.1 20.1 20.5 21.3 21.3 20.5 20.5 20.7 20.9 21.0 21.0 20.8 20.7 20.6 20.6 20.5 20.4 20.4 20.3 20.3 20.2 20.2 20.2 20.2 20.1 20.1 20.1 20.1 24.2 30.3 28.4 21.8 20.8 20.8 21.0 21.2 21.1 21.0 20.8 20.7 20.6 20.6 20.5 20.4 20.4 20.3 20.3 20.2 20.2 20.2 20.2 20.1 20.1 20.1 40.3 44.3 32.8 22.8 21.7 21.2 21.3 21.5 21.4 21.2 21.0 20.9 20.7 20.6 20.6 20.5 20.4 20.4 20.3 20.3 20.2 20.2 20.2 20.2 20.1 20.1 54.2 54.6 35.0 23.7 23.7 22.3 22.1 22.8 23.9 23.0 21.3 21.0 20.9 20.8 20.6 20.5 20.5 20.4 20.3 20.3 20.3 20.2 20.2 20.2 20.2 20.2 78.8 94.0 58.0 27.9 28.9 26.1 25.2 30.7 41.4 36.7 23.9 21.4 21.0 20.9 20.7 20.6 20.5 20.5 20.4 20.3 20.3 20.3 20.2 20.2 20.2 20.2 126.0 152.2 92.7 45.8 52.8 44.4 39.2 50.9 73.3 70.8 41.4 24.3 21.4 21.1 20.9 20.7 20.6 20.5 20.4 20.4 20.3 20.3 20.2 20.2 20.2 20.1 129.2 144.9 94.5 65.7 80.9 71.9 66.0 81.5 103.9 102.4 69.3 34.2 22.4 21.3 21.0 20.8 20.7 20.5 20.4 20.4 20.3 20.3 20.2 20.2 20.1 20.1 83.3 82.3 62.0 58.5 70.5 66.5 65.0 74.5 86.9 91.1 69.5 34.9 22.4 21.3 21.0 20.8 20.7 20.5 20.4 20.4 20.3 20.3 20.2 20.2 20.2 20.1 46.2 42.3 38.3 40.1 43.6 43.8 43.8 42.2 45.9 52.1 41.5 24.9 21.4 21.0 20.9 20.7 20.6 20.5 20.4 20.4 20.3 20.3 20.2 20.2 20.2 20.2 32.3 32.8 32.1 34.2 35.3 36.2 35.2 30.8 29.9 28.2 23.7 21.3 21.0 20.9 20.7 20.6 20.5 20.5 20.4 20.3 20.3 20.3 20.2 20.2 20.2 20.2 26.8 29.4 30.3 31.7 30.4 28.2 26.8 24.7 22.8 21.8 21.1 20.9 20.8 20.7 20.6 20.5 20.4 20.4 20.3 20.3 20.2 20.2 20.2 20.2 20.2 20.1 20.1 20.1 20.1 20.1 20.1 20.1 20.1 20.1 20.1 20.1 20.1 20.1 20.1 20.1 20.1 20.1 20.1 20.1 20.1 20.1 20.0 20.0 20.0 20.0 20.0 20.0 20.1 20.1 20.1 20.1 20.1 20.1 20.1 20.1 20.1 20.1 20.1 20.1 20.1 20.1 20.1 20.1 20.1 20.1 20.1 20.1 20.0 20.0 20.0 20.0 20.0 20.0 20.1 20.1 20.1 20.1 20.1 20.1 20.1 20.1 20.1 20.1 20.1 20.1 20.1 20.1 20.1 20.1 20.1 20.1 20.1 20.1 20.1 20.1 20.0 20.0 20.0 20.0 20.1 20.1 20.1 20.1 20.1 20.1 20.1 20.1 20.1 20.1 20.1 20.1 20.1 20.1 20.1 20.1 20.1 20.1 20.1 20.1 20.1 20.1 20.1 20.0 20.0 20.0 20.1 20.1 20.1 20.1 20.1 20.1 20.1 20.1 20.1 20.1 20.1 20.1 20.1 20.1 20.1 20.1 20.1 20.1 20.1 20.1 20.1 20.1 20.1 20.1 20.0 20.0 20.1 20.1 20.1 20.1 20.1 20.1 20.1 20.2 20.2 20.2 20.2 20.1 20.1 20.1 20.1 20.1 20.1 20.1 20.1 20.1 20.1 20.1 20.1 20.1 20.1 20.0 20.1 20.1 20.1 20.2 20.2 20.2 20.2 20.2 20.2 20.2 20.2 20.2 20.1 20.1 20.1 20.1 20.1 20.1 20.1 20.1 20.1 20.1 20.1 20.1 20.1 20.1 20.1 20.1 20.2 20.2 20.2 20.2 20.2 20.2 20.2 20.2 20.2 20.2 20.2 20.1 20.1 20.1 20.1 20.1 20.1 20.1 20.1 20.1 20.1 20.1 20.1 20.1 20.1 20.2 20.2 20.2 20.2 20.2 20.2 20.2 20.3 20.2 20.2 20.2 20.2 20.2 20.1 20.1 20.1 20.1 20.1 20.1 20.1 20.1 20.1 20.1 20.1 20.1 20.1 20.2 20.2 20.2 20.2 20.3 20.3 20.3 20.3 20.3 20.3 20.2 20.2 20.2 20.2 20.2 20.1 20.1 20.1 20.1 20.1 20.1 20.1 20.1 20.1 20.1 20.2 20.2 20.2 20.3 20.3 20.3 20.3 20.4 20.3 20.3 20.3 20.3 20.2 20.2 20.2 20.2 20.2 20.1 20.1 20.1 20.1 20.1 20.1 20.1 20.1 20.1 20.2 20.2 20.2 20.3 20.3 20.4 20.4 20.4 20.4 20.4 20.3 20.3 20.3 20.2 20.2 20.2 20.2 20.2 20.1 20.1 20.1 20.1 20.1 20.1 20.1 20.1 20.2 20.2 20.3 20.3 20.4 20.4 20.5 20.5 20.5 20.4 20.4 20.3 20.3 20.3 20.3 20.2 20.2 20.2 20.2 20.1 20.1 20.1 20.1 20.1 20.1 20.1 20.2 20.3 20.3 20.3 20.4 20.5 20.5 20.6 20.6 20.5 20.5 20.4 20.4 20.3 20.3 20.3 20.2 20.2 20.2 20.2 20.1 20.1 20.1 20.1 20.1 20.1 20.2 20.3 20.3 20.4 20.4 20.5 20.6 20.7 20.7 20.6 20.5 