<?xml version="1.0"?>
<VTKFile type="PolyData" version="1.0" byte_order="LittleEndian" header_type="UInt64">
<PolyData>
<Piece NumberOfPoints="1412" NumberOfVerts="0" NumberOfLines="0" NumberOfPolys="700">
    <Points>
        <DataArray type="Float32" NumberOfComponents="3" format="ascii">
        18.0 10.0 1.8 18.0 10.0 1.8 18.0 10.0 1.8 18.0 10.0 1.8 18.0 10.2 1.8 18.0 10.2 1.8 18.0 10.0 1.8 18.0 10.0 1.8 18.0 10.0 1.8 18.1 10.0 1.6 18.3 10.0 1.8 18.0 10.0 1.8 18.0 10.2 1.8 18.1 10.2 1.6 18.1 10.0 1.6 18.3 10.0 1.8 18.1 10.0 1.6 18.1 10.2 1.6 18.3 10.2 1.8 18.0 10.2 1.8 18.0 10.8 1.8 18.0 10.8 1.8 18.0 10.2 1.8 18.0 10.2 1.8 18.0 10.8 1.8 18.1 10.8 1.6 18.1 10.2 1.6 18.3 10.2 1.8 18.1 10.2 1.6 18.1 10.8 1.6 18.3 10.8 1.8 18.0 10.8 1.8 18.0 11.4 1.8 18.0 11.4 1.8 18.0 10.8 1.8 18.0 10.8 1.8 18.0 11.4 1.8 18.1 11.4 1.6 18.1 10.8 1.6 18.3 10.8 1.8 18.1 10.8 1.6 18.1 11.4 1.6 18.3 11.4 1.8 18.0 11.4 1.8 18.0 12.0 1.8 18.0 12.0 1.8 18.0 11.4 1.8 18.0 11.4 1.8 18.0 12.0 1.8 18.1 12.0 1.6 18.1 11.4 1.6 18.3 11.4 1.8 18.1 11.4 1.6 18.1 12.0 1.6 18.3 12.0 1.8 18.0 12.0 1.8 18.0 12.6 1.8 18.0 12.6 1.8 18.0 12.0 1.8 18.0 12.0 1.8 18.0 12.6 1.8 18.1 12.6 1.6 18.1 12.0 1.6 18.3 12.0 1.8 18.1 12.0 1.6 18.1 12.6 1.6 18.3 12.6 1.8 18.0 12.6 1.8 18.0 13.2 1.8 18.0 13.2 1.8 18.0 12.6 1.8 18.0 12.6 1.8 18.0 13.2 1.8 18.1 13.2 1.6 18.1 12.6 1.6 18.3 12.6 1.8 18.1 12.6 1.6 18.1 13.2 1.6 18.3 13.2 1.8 18.3 13.1 1.8 18.3 13.1 1.8 18.3 13.2 1.8 18.3 13.2 1.8 18.0 13.2 1.8 18.0 13.8 1.8 18.0 13.8 1.8 18.0 13.2 1.8 18.0 13.8 1.8 18.0 13.8 1.8 18.0 13.8 1.8 18.0 13.8 1.8 18.0 13.2 1.8 18.0 13.8 1.8 18.0 13.8 1.8 18.1 13.8 1.6 18.1 13.2 1.6 18.0 13.8 1.8 18.0 13.8 1.8 18.0 13.8 1.8 18.3 13.2 1.8 18.1 13.2 1.6 18.1 13.8 1.6 18.2 13.8 1.7 18.3 13.2 1.8 18.3 13.2 1.8 18.2 13.8 1.7 18.3 13.8 1.8 18.0 13.8 1.8 18.0 14.0 1.8 18.0 14.0 1.8 18.0 13.8 1.8 18.0 14.0 1.8 18.0 14.0 1.8 18.0 14.0 1.8 18.0 13.8 1.8 18.0 14.0 1.8 18.1 14.0 1.6 18.0 13.8 1.8 18.0 14.0 1.8 18.0 14.0 1.8 18.3 14.0 1.8 18.1 14.0 1.6 18.1 13.8 1.6 18.0 13.8 1.8 18.1 14.0 1.6 18.2 13.8 1.7 18.1 13.8 1.6 18.1 14.0 1.6 18.3 13.8 1.8 18.2 13.8 1.7 18.1 14.0 1.6 18.3 14.0 1.8 17.4 10.0 2.4 17.4 10.0 2.4 17.4 10.0 2.4 17.4 10.0 2.4 17.4 10.2 2.4 17.4 10.2 2.4 17.4 10.0 2.4 17.4 10.0 2.4 17.4 10.0 2.4 18.0 10.0 1.8 18.0 10.0 1.8 18.0 10.0 2.4 17.4 10.0 2.4 17.4 10.2 2.4 18.0 10.2 1.8 18.0 10.0 1.8 18.0 10.0 2.4 18.0 10.0 1.8 18.3 10.0 1.8 18.6 10.0 2.1 18.6 10.0 2.4 18.3 10.0 1.8 18.3 10.2 1.8 18.6 10.2 2.1 18.6 10.0 2.1 18.6 10.0 2.4 18.6 10.0 2.1 18.9 10.0 2.4 18.8 10.0 2.4 18.6 10.0 2.1 18.6 10.2 2.1 18.8 10.2 2.3 18.9 10.0 2.4 18.8 10.0 2.4 18.9 10.0 2.4 18.9 10.2 2.4 18.8 10.2 2.4 18.9 10.0 2.4 18.8 10.2 2.3 18.9 10.2 2.4 18.9 10.0 2.4 18.8 10.0 2.4 18.8 10.0 2.4 17.4 10.2 2.4 17.4 10.8 2.4 17.4 10.8 2.4 17.4 10.2 2.4 17.4 10.2 2.4 17.4 10.8 2.4 18.0 10.8 1.8 18.0 10.2 1.8 18.3 10.2 1.8 18.3 10.8 1.8 18.6 10.8 2.1 18.6 10.2 2.1 18.6 10.2 2.1 18.6 10.8 2.1 18.7 10.8 2.2 18.8 10.2 2.3 18.8 10.2 2.4 18.9 10.2 2.4 18.9 10.8 2.4 18.8 10.8 2.4 18.9 10.2 2.4 18.8 10.2 2.3 18.7 10.8 2.2 18.9 10.8 2.4 17.4 10.8 2.4 17.4 11.4 2.4 17.4 11.4 2.4 17.4 10.8 2.4 17.4 10.8 2.4 17.4 11.4 2.4 18.0 11.4 1.8 18.0 10.8 1.8 18.3 10.8 1.8 18.3 11.4 1.8 18.6 11.4 2.1 18.6 10.8 2.1 18.6 10.8 2.1 18.6 11.4 2.1 18.6 11.4 2.1 18.7 10.8 2.2 18.8 10.8 2.4 18.9 10.8 2.4 18.9 11.4 2.4 18.8 11.4 2.4 18.9 10.8 2.4 18.7 10.8 2.2 18.6 11.4 2.1 18.9 11.4 2.4 17.4 11.4 2.4 17.4 12.0 2.4 17.4 12.0 2.4 17.4 11.4 2.4 17.4 11.4 2.4 17.4 12.0 2.4 18.0 12.0 1.8 18.0 11.4 1.8 18.3 11.4 1.8 18.3 12.0 1.8 18.5 12.0 2.0 18.6 11.4 2.1 18.6 11.4 2.1 18.5 12.0 2.0 18.6 12.0 2.1 18.6 11.4 2.1 18.6 11.4 2.1 18.6 11.4 2.1 18.6 11.4 2.1 18.6 11.4 2.1 18.6 12.0 2.1 18.9 12.0 2.4 18.9 11.4 2.4 18.6 11.4 2.1 18.8 11.4 2.4 18.9 11.4 2.4 18.9 12.0 2.4 18.8 12.0 2.4 17.4 12.0 2.4 17.4 12.6 2.4 17.4 12.6 2.4 17.4 12.0 2.4 17.4 12.0 2.4 17.4 12.6 2.4 18.0 12.6 1.8 18.0 12.0 1.8 18.5 12.0 2.0 18.4 12.6 1.9 18.6 12.6 2.1 18.6 12.0 2.1 18.5 12.0 2.0 18.3 12.0 1.8 18.3 12.6 1.8 18.4 12.6 1.9 18.6 12.0 2.1 18.6 12.6 2.1 18.9 12.6 2.4 18.9 12.0 2.4 18.8 12.0 2.4 18.9 12.0 2.4 18.9 12.6 2.4 18.8 12.6 2.4 17.4 12.6 2.4 17.4 12.9 2.4 17.4 12.9 2.4 17.4 12.6 2.4 17.4 12.9 2.4 17.4 13.2 2.4 17.4 13.2 2.4 17.4 12.9 2.4 17.4 12.6 2.4 17.4 12.9 2.4 17.6 13.2 2.2 18.0 13.2 1.8 18.0 12.6 1.8 17.4 12.9 2.4 17.4 13.2 2.4 17.6 13.2 2.2 18.4 12.6 1.9 18.3 13.1 1.8 18.3 13.2 1.8 18.6 13.2 2.1 18.6 12.6 2.1 18.4 12.6 1.9 18.3 12.6 1.8 18.3 13.1 1.8 18.6 12.6 2.1 18.6 13.2 2.1 18.9 13.2 2.4 18.9 12.6 2.4 18.8 12.6 2.4 18.9 12.6 2.4 18.9 13.2 2.4 18.8 13.2 2.4 17.4 13.2 2.4 17.4 13.8 2.4 17.4 13.8 2.4 17.4 13.2 2.4 17.4 13.2 2.4 17.4 13.8 2.4 18.0 13.8 1.8 18.0 13.8 1.8 17.6 13.2 2.2 18.0 13.2 1.8 17.6 13.2 2.2 18.0 13.8 1.8 18.3 13.2 1.8 18.3 13.8 1.8 18.6 13.8 2.1 18.6 13.2 2.1 18.6 13.2 2.1 18.6 13.8 2.1 18.9 13.8 2.4 18.9 13.2 2.4 18.8 13.2 2.4 18.9 13.2 2.4 18.9 13.8 2.4 18.8 13.8 2.4 17.4 13.8 2.4 17.4 14.0 2.4 17.4 14.0 2.4 17.4 13.8 2.4 17.4 14.0 2.4 17.4 14.0 2.4 17.4 14.0 2.4 17.4 13.8 2.4 17.4 14.0 2.4 18.0 14.0 1.8 18.0 13.8 1.8 17.4 14.0 2.4 17.4 14.0 2.4 18.0 14.0 2.4 18.0 14.0 1.8 18.0 14.0 1.8 18.0 14.0 1.8 18.0 14.0 2.4 18.6 14.0 2.4 18.6 14.0 2.1 18.3 14.0 1.8 18.3 13.8 1.8 18.3 14.0 1.8 18.6 14.0 2.1 18.6 13.8 2.1 18.6 13.8 2.1 18.6 14.0 2.1 18.9 14.0 2.4 18.9 13.8 2.4 18.6 14.0 2.1 18.6 14.0 2.4 18.8 14.0 2.4 18.9 14.0 2.4 18.8 13.8 2.4 18.9 13.8 2.4 18.9 14.0 2.4 18.8 13.9 2.4 18.9 14.0 2.4 18.8 14.0 2.4 18.8 13.9 2.4 18.9 14.0 2.4 18.8 14.0 2.4 18.8 14.0 2.4 16.8 10.0 3.0 16.8 10.0 3.0 16.8 10.0 3.0 16.8 10.0 3.0 16.8 10.2 3.0 16.8 10.2 3.0 16.8 10.0 3.0 16.8 10.0 3.0 16.8 10.0 3.0 17.4 10.0 2.4 17.4 10.0 2.4 17.4 10.0 3.0 16.8 10.0 3.0 16.8 10.2 3.0 17.4 10.2 2.4 17.4 10.0 2.4 17.4 10.0 3.0 17.4 10.0 2.4 18.0 10.0 2.4 18.0 10.0 2.9 17.8 10.0 3.0 17.8 10.0 3.0 18.0 10.0 2.9 18.0 10.0 3.0 18.0 10.0 2.9 18.0 10.0 2.4 18.6 10.0 2.4 18.6 10.0 2.5 18.0 10.0 3.0 18.0 10.0 2.9 18.6 10.0 2.5 18.6 10.0 2.6 18.2 10.0 3.0 18.2 10.2 3.0 18.2 10.0 3.0 18.6 10.0 2.6 18.6 10.2 2.6 18.6 10.0 2.5 18.6 10.0 2.4 18.8 10.0 2.4 18.6 10.0 2.6 18.6 10.0 2.5 18.8 10.0 2.4 18.8 10.0 2.4 18.6 10.2 2.6 18.6 10.0 2.6 18.8 10.0 2.4 18.8 10.2 2.4 16.8 10.2 3.0 16.8 10.8 3.0 16.8 10.8 3.0 16.8 10.2 3.0 16.8 10.2 3.0 16.8 10.8 3.0 17.4 10.8 2.4 17.4 10.2 2.4 18.2 10.8 3.0 18.2 10.2 3.0 18.6 10.2 2.6 18.6 10.8 2.6 18.6 10.8 2.6 18.6 10.2 2.6 18.8 10.2 2.4 18.8 10.8 2.4 16.8 10.8 3.0 16.8 11.4 3.0 16.8 11.4 3.0 16.8 10.8 3.0 16.8 10.8 3.0 16.8 11.4 3.0 17.4 11.4 2.4 17.4 10.8 2.4 18.2 11.4 3.0 18.2 10.8 3.0 18.6 10.8 2.6 18.6 11.4 2.6 18.6 11.4 2.6 18.6 10.8 2.6 18.8 10.8 2.4 18.8 11.4 2.4 16.8 11.4 3.0 16.8 12.0 3.0 16.8 12.0 3.0 16.8 11.4 3.0 16.8 11.4 3.0 16.8 12.0 3.0 17.4 12.0 2.4 17.4 11.4 2.4 18.2 12.0 3.0 18.2 11.4 3.0 18.6 11.4 2.6 18.6 12.0 2.6 18.6 12.0 2.6 18.6 11.4 2.6 18.8 11.4 2.4 18.8 12.0 2.4 16.8 12.0 3.0 16.8 12.1 3.0 16.8 12.1 3.0 16.8 12.0 3.0 16.8 12.1 3.0 16.8 12.6 3.0 16.8 12.6 3.0 16.8 12.1 3.0 16.8 12.0 3.0 16.8 12.1 3.0 17.2 12.6 2.6 17.4 12.6 2.4 17.4 12.0 2.4 16.8 12.1 3.0 16.8 12.6 3.0 17.2 12.6 2.6 18.2 12.6 3.0 18.2 12.0 3.0 18.6 12.0 2.6 18.6 12.6 2.6 18.6 12.6 2.6 18.6 12.0 2.6 18.8 12.0 2.4 18.8 12.6 2.4 16.8 12.6 3.0 16.8 13.2 3.0 16.8 13.2 3.0 16.8 12.6 3.0 16.8 12.6 3.0 16.8 13.2 3.0 17.4 13.2 2.4 17.4 12.9 2.4 17.2 12.6 2.6 17.4 12.6 2.4 17.2 12.6 2.6 17.4 12.9 2.4 18.3 13.2 2.9 18.2 13.1 3.0 18.2 12.6 3.0 18.6 12.6 2.6 18.6 13.2 2.6 18.2 13.1 3.0 18.3 13.2 2.9 18.2 13.2 3.0 18.6 13.2 2.6 18.6 12.6 2.6 18.8 12.6 2.4 18.8 13.2 2.4 16.8 13.2 3.0 16.8 13.8 3.0 16.8 13.8 3.0 16.8 13.2 3.0 16.8 13.2 3.0 16.8 13.8 3.0 17.4 13.8 2.4 17.4 13.2 2.4 18.3 13.2 2.9 18.6 13.2 2.6 18.6 13.6 2.6 18.2 13.8 3.0 18.2 13.2 3.0 18.3 13.2 2.9 18.6 13.6 2.6 18.6 13.8 2.6 18.6 13.6 2.6 18.6 13.2 2.6 18.8 13.2 2.4 18.8 13.8 2.4 18.7 13.8 2.5 18.6 13.8 2.6 18.6 13.6 2.6 18.7 13.8 2.5 16.8 13.8 3.0 16.8 14.0 3.0 16.8 14.0 3.0 16.8 13.8 3.0 16.8 14.0 3.0 16.8 14.0 3.0 16.8 14.0 3.0 16.8 13.8 3.0 16.8 14.0 3.0 17.4 14.0 2.4 17.4 13.8 2.4 16.8 14.0 3.0 16.8 14.0 3.0 17.4 14.0 3.0 17.4 14.0 2.4 17.4 14.0 2.4 17.4 14.0 2.4 17.4 14.0 3.0 17.8 14.0 3.0 18.0 14.0 2.9 18.0 14.0 2.4 17.8 14.0 3.0 18.0 14.0 3.0 18.0 14.0 2.9 18.0 14.0 2.4 18.0 14.0 2.9 18.6 14.0 2.5 18.6 14.0 2.4 18.0 14.0 2.9 18.0 14.0 3.0 18.2 14.0 3.0 18.6 14.0 2.6 18.6 14.0 2.5 18.2 14.0 3.0 18.2 13.8 3.0 18.6 13.8 2.6 18.6 14.0 2.6 18.6 14.0 2.4 18.6 14.0 2.5 18.8 14.0 2.4 18.6 14.0 2.6 18.6 13.8 2.6 18.7 13.8 2.5 18.8 13.9 2.4 18.8 14.0 2.4 18.6 14.0 2.5 18.6 14.0 2.6 18.8 14.0 2.4 18.8 14.0 2.4 18.7 13.8 2.5 18.8 13.8 2.4 18.8 13.9 2.4 16.2 10.0 3.6 16.2 10.0 3.6 16.2 10.0 3.6 16.2 10.0 3.6 16.2 10.2 3.6 16.2 10.2 3.6 16.2 10.0 3.6 16.2 10.0 3.6 16.2 10.0 3.6 16.8 10.0 3.0 16.8 10.0 3.0 16.8 10.0 3.6 16.8 10.0 3.6 16.2 10.0 3.6 16.2 10.2 3.6 16.8 10.2 3.0 16.8 10.0 3.0 16.8 10.0 3.6 16.8 10.0 3.6 16.8 10.0 3.6 16.8 10.0 3.6 16.8 10.0 3.0 17.4 10.0 3.0 17.4 10.0 3.2 16.8 10.0 3.6 16.8 10.0 3.6 17.4 10.0 3.2 17.4 10.0 3.6 17.4 10.0 3.2 17.4 10.0 3.0 17.8 10.0 3.0 17.4 10.0 3.6 17.4 10.0 3.2 17.8 10.0 3.0 18.0 10.0 3.0 18.0 10.0 3.2 17.6 10.0 3.6 17.6 10.2 3.6 17.6 10.0 3.6 18.0 10.0 3.2 18.0 10.2 3.2 18.0 10.0 3.2 18.0 10.0 3.0 18.2 10.0 3.0 18.0 10.2 3.2 18.0 10.0 3.2 18.2 10.0 3.0 18.2 10.2 3.0 16.2 10.2 3.6 16.2 10.8 3.6 16.2 10.8 3.6 16.2 10.2 3.6 16.2 10.2 3.6 16.2 10.8 3.6 16.8 10.8 3.0 16.8 10.2 3.0 17.6 10.8 3.6 17.6 10.2 3.6 18.0 10.2 3.2 18.0 10.8 3.2 18.0 10.8 3.2 18.0 10.2 3.2 18.2 10.2 3.0 18.2 10.8 3.0 16.2 10.8 3.6 16.2 11.2 3.6 16.2 11.2 3.6 16.2 10.8 3.6 16.2 11.2 3.6 16.2 11.4 3.6 16.2 11.4 3.6 16.2 11.2 3.6 16.2 10.8 3.6 16.2 11.2 3.6 16.3 11.4 3.5 16.8 11.4 3.0 16.8 10.8 3.0 16.2 11.2 3.6 16.2 11.4 3.6 16.3 11.4 3.5 17.6 11.4 3.6 17.6 10.8 3.6 18.0 10.8 3.2 18.0 11.4 3.2 18.0 11.4 3.2 18.0 10.8 3.2 18.2 10.8 3.0 18.2 11.4 3.0 16.2 11.4 3.6 16.2 12.0 3.6 16.2 12.0 3.6 16.2 11.4 3.6 16.2 11.4 3.6 16.2 12.0 3.6 16.7 12.0 3.1 16.3 11.4 3.5 16.8 11.4 3.0 16.3 11.4 3.5 16.7 1
[...]
    <CellData>
        <DataArray type="Float32" Name="WALL TEMPERATURE" format="ascii">
            84.8 104.1 104.1 363.0 363.0 196.2 196.2 182.4 182.4 160.5 160.5 299.1 299.1 282.4 282.4 266.3 266.3 458.8 458.8 451.6 451.6 450.7 450.7 734.1 734.1 826.3 826.3 683.8 683.8 910.0 910.0 998.1 998.1 767.6 767.6 950.3 950.3 1039.3 1039.3 1039.3 1039.3 678.4 678.4 678.4 678.4 911.9 911.9 911.9 891.8 991.2 991.2 991.2 991.2 402.9 402.9 146.1 690.2 690.2 726.2 726.2 707.6 758.4 758.4 758.4 79.6 78.7 78.7 190.8 190.8 190.8 92.5 92.5 325.6 325.6 325.6 163.8 163.8 327.1 327.1 143.1 143.1 186.3 186.3 143.0 327.1 116.5 116.5 139.7 139.7 256.9 256.9 228.9 228.9 286.6 286.6 228.9 228.9 202.0 202.0 237.4 237.4 424.4 424.4 392.5 392.5 446.2 446.2 392.5 392.5 393.7 393.7 430.9 430.9 769.7 769.7 769.7 769.3 701.7 701.7 701.7 701.7 694.7 694.7 549.5 549.5 633.3 633.3 964.7 964.7 965.2 965.2 917.2 917.2 876.7 876.7 580.2 580.2 580.2 580.2 790.8 790.8 790.8 725.8 1001.7 1001.7 1001.7 1002.2 953.5 953.5 910.7 910.7 528.4 528.4 650.1 650.1 650.1 703.2 963.2 963.2 931.7 931.7 894.1 894.1 309.9 309.9 120.8 364.1 364.1 352.6 352.6 352.6 694.7 694.7 694.7 741.4 741.4 721.6 721.6 696.5 696.5 736.7 736.7 733.3 696.5 73.1 65.0 65.0 146.6 146.6 146.6 72.1 72.1 70.0 70.0 70.0 70.1 182.9 182.9 182.9 182.9 182.9 96.4 96.4 244.4 244.4 244.4 110.7 110.7 92.7 92.7 104.6 104.6 144.5 144.5 168.6 168.6 156.9 156.9 181.2 181.2 247.8 247.8 285.3 285.3 320.1 320.1 367.1 367.1 433.2 433.2 483.3 483.3 467.7 467.7 467.7 467.7 577.9 577.9 577.9 545.7 631.9 631.9 682.0 682.0 473.2 473.2 570.1 570.1 570.1 606.4 720.3 720.3 720.3 720.4 762.5 762.5 434.4 434.4 499.2 499.2 679.3 672.2 672.2 672.2 715.4 715.4 715.4 715.4 238.9 238.9 103.5 280.6 280.6 261.3 261.3 261.3 105.7 105.7 105.7 105.7 431.8 431.8 431.8 431.8 431.8 509.7 509.7 530.1 544.6 544.6 544.6 530.1 530.1 599.4 61.5 53.4 53.4 114.6 114.6 114.6 114.6 59.4 59.4 111.9 77.4 77.4 77.5 77.5 116.7 116.9 116.9 116.9 116.9 71.4 71.4 177.6 79.8 79.8 73.3 73.3 82.8 82.8 96.7 96.7 116.9 116.9 116.8 116.8 116.3 116.3 169.0 169.0 169.0 139.7 175.4 175.4 199.5 199.5 245.3 245.3 309.6 309.6 329.9 329.9 323.3 323.3 361.1 361.1 381.1 381.1 441.4 441.4 441.4 477.2 509.1 509.1 509.1 448.2 548.2 548.2 377.4 377.4 443.7 443.7 590.9 573.2 573.2 573.2 617.5 617.5 617.5 617.5 343.0 343.0 406.2 406.2 543.3 543.3 598.9 598.9 186.1 186.1 99.8 216.7 216.7 202.0 202.0 202.0 202.0 201.8 106.3 106.3 106.3 106.3 277.3 277.3 277.3 277.3 277.3 405.1 405.1 458.6 458.6 426.2 44.5 44.3 44.3 83.8 83.8 83.8 83.8 49.3 49.3 83.7 68.4 68.4 68.4 68.4 77.8 77.8 77.8 57.0 57.0 113.8 62.4 62.4 58.0 58.0 58.0 58.0 75.2 75.2 75.2 67.8 74.8 74.8 82.6 82.6 87.5 87.5 113.2 113.2 113.2 122.0 133.8 133.8 133.8 108.6 143.6 143.6 178.2 178.2 218.2 218.2 249.3 244.1 244.1 244.1 271.3 271.3 271.3 325.9 273.5 273.5 344.1 344.1 371.5 371.5 413.4 413.4 413.4 413.4 266.1 266.1 340.1 340.1 428.8 428.8 476.3 476.3 236.4 236.4 303.8 303.8 399.8 399.8 455.8 455.8 116.9 116.9 62.8 156.8 156.8 150.9 150.9 150.9 150.9 150.9 92.4 92.4 92.4 92.4 151.5 151.5 151.5 277.9 277.9 334.6 334.6 273.2 60.7 60.7 60.8 111.0 111.0 49.5 49.5 49.6 64.7 64.8 64.8 64.8 64.8 102.6 102.6 55.7 55.7 55.7 49.8 49.8 70.3 52.7 52.7 170.8 170.8 67.2 67.3 67.3 67.3 159.7 159.7 68.0 68.0 68.0 60.3 68.1 68.1 264.4 264.4 108.1 108.1 254.7 254.7 96.1 94.9 94.9 94.9 101.0 101.0 94.6 94.6 410.5 410.5 201.7 201.7 397.2 397.2 168.0 168.0 195.0 195.0 490.9 490.9 490.9 476.4 282.7 282.7 468.3 468.3 467.6 467.6 268.6 268.6 308.2 308.2 484.7 484.7 282.3 282.3 500.3 500.3 480.9 480.9 295.3 295.3 343.2 343.2 482.0 482.0 250.6 250.6 482.0 482.0 457.3 457.3 261.0 261.0 311.6 311.6 101.4 101.4 389.2 389.2 101.4 148.9 148.9 389.2 106.2 369.6 369.6 106.2 106.2 106.2 106.2 83.2 83.2 83.2 166.0 166.0 206.7 206.7 142.5 60.8 60.8 50.3 50.3 93.4 93.4 50.4 93.2 52.9 46.3 46.3 61.9 66.3 66.3 66.3 148.2 148.2 148.1 148.1 57.7 57.7 57.6 57.6 102.3 102.3 242.8 242.8 242.8 242.8 82.4 82.4 173.6 173.6 394.6 394.6 377.0 377.0 141.8 141.8 228.0 228.0 455.5 435.1 435.1 435.1 209.7 209.7 239.3 239.3 449.6 449.6 219.4 219.4 204.1 204.1 423.3 423.3 188.8 188.8 140.2 140.2 101.7 101.7 345.2 345.2 119.6 119.6 80.4 
         </DataArray>
        <DataArray type="Float32" Name="water drops AMPUA" format="ascii">
            2.6 0.0 0.0 0.0 0.0 0.0 0.0 0.0 0.0 0.0 0.0 0.0 0.0 0.0 0.0 0.0 0.0 0.0 0.0 0.0 0.0 0.0 0.0 0.0 0.0 0.0 0.0 0.0 0.0 0.0 0.0 0.0 0.0 0.0 0.0 0.0 0.0 0.0 0.0 0.0 0.0 0.0 0.0 0.0 0.0 0.0 0.0 0.0 0.0 0.0 0.0 0.0 0.0 0.0 0.0 0.0 0.0 0.0 0.0 0.0 0.0 0.0 0.0 0.0 5.7 0.0 0.0 0.0 0.0 0.0 0.0 0.0 0.0 0.0 0.0 0.0 0.0 0.0 0.0 0.0 0.0 0.0 0.0 0.0 0.0 0.0 0.0 0.0 0.0 0.0 0.0 0.0 0.0 0.0 0.0 0.0 0.0 0.0 0.0 0.0 0.0 0.0 0.0 0.0 0.0 0.0 0.0 0.0 0.0 0.0 0.0 0.0 0.0 0.0 0.0 0.0 0.0 0.0 0.0 0.0 0.0 0.0 0.0 0.0 0.0 0.0 0.0 0.0 0.0 0.0 0.0 0.0 0.0 0.0 0.0 0.0 0.0 0.0 0.0 0.0 0.0 0.0 0.0 0.0 0.0 0.0 0.0 0.0 0.0 0.0 0.0 0.0 0.0 0.0 0.0 0.0 0.0 0.0 0.0 0.0 0.0 0.0 0.0 0.0 0.0 0.0 0.0 0.0 0.0 0.0 0.0 0.0 0.0 0.0 0.0 0.0 0.0 0.0 0.0 0.0 0.0 0.0 0.0 0.0 2.3 0.0 0.0 0.0 0.0 0.0 0.0 0.0 0.0 0.0 0.0 0.0 0.0 0.0 0.0 0.0 0.0 0.0 0.0 0.0 0.0 0.0 0.0 0.0 0.0 0.0 0.0 0.0 0.0 0.0 0.0 0.0 0.0 0.0 0.0 0.0 0.0 0.0 0.0 0.0 0.0 0.0 0.0 0.0 0.0 0.0 0.0 0.0 0.0 0.0 0.0 0.0 0.0 0.0 0.0 0.0 0.0 0.0 0.0 0.0 0.0 0.0 0.0 0.0 0.0 0.0 0.0 0.0 0.0 0.0 0.0 0.0 0.0 0.0 0.0 0.0 0.0 0.0 0.0 0.0 0.0 0.0 0.0 0.0 0.0 0.0 0.0 0.0 0.0 0.0 0.0 0.0 0.0 0.0 0.0 0.0 0.0 0.0 0.0 0.0 0.0 0.0 0.0 0.0 0.0 0.0 0.0 0.0 0.0 0.0 1.2 0.0 0.0 0.0 0.0 0.0 0.0 0.0 0.0 0.0 0.0 0.0 0.0 0.0 0.0 0.0 0.0 0.0 0.0 0.0 0.0 0.0 0.0 0.0 0.0 0.0 0.0 0.0 0.0 0.0 0.0 0.0 0.0 0.0 0.0 0.0 0.0 0.0 0.0 0.0 0.0 0.0 0.0 0.0 0.0 0.0 0.0 0.0 0.0 0.0 0.0 0.0 0.0 0.0 0.0 0.0 0.0 0.0 0.0 0.0 0.0 0.0 0.0 0.0 0.0 0.0 0.0 0.0 0.0 0.0 0.0 0.0 0.0 0.0 0.0 0.0 0.0 0.0 0.0 0.0 0.0 0.0 0.0 0.0 0.0 0.0 0.0 0.0 0.0 0.0 0.0 0.0 0.0 0.0 0.0 0.0 0.0 0.0 0.0 0.0 0.0 0.0 0.0 0.0 0.0 0.0 0.0 0.0 0.0 0.0 0.0 0.0 0.0 0.0 0.0 0.0 0.0 0.0 0.0 0.0 0.0 0.0 0.0 0.0 0.0 0.0 0.0 0.0 0.0 0.0 0.0 0.0 0.0 0.0 0.0 0.0 0.0 0.0 0.0 0.0 0.0 0.0 0.0 0.0 0.0 0.0 0.0 0.0 0.0 0.0 0.0 0.0 0.0 17.4 0.0 0.0 0.0 0.0 0.0 0.0 0.0 0.0 0.0 0.0 0.0 0.0 0.0 0.0 0.0 0.0 0.0 0.0 0.0 0.0 0.0 0.0 0.0 0.0 0.0 0.0 0.0 0.0 0.0 0.0 0.0 0.0 0.0 0.0 0.0 0.0 0.0 0.0 0.0 0.0 0.0 0.0 0.0 0.0 0.0 0.0 0.0 0.0 0.0 0.0 0.0 0.0 0.0 0.0 0.0 0.0 0.0 0.0 0.0 0.0 0.0 0.0 0.0 0.0 0.0 0.0 0.0 0.0 0.0 0.0 0.0 0.0 0.0 0.0 0.0 0.0 0.0 0.0 0.0 0.0 0.0 0.0 0.0 0.0 0.0 0.0 0.0 0.0 0.0 0.0 0.0 0.0 0.0 0.0 0.0 0.0 0.0 0.0 0.0 0.0 0.0 0.0 0.0 0.0 0.0 0.0 0.0 0.0 0.0 0.0 0.0 0.0 0.0 0.0 0.0 0.0 0.0 0.0 0.0 0.0 0.0 0.0 0.0 0.0 0.0 0.0 0.0 0.0 0.0 0.0 0.0 0.0 0.0 0.0 0.0 0.0 0.0 0.0 0.0 0.0 0.0 0.0 0.0 0.0 0.0 0.0 0.0 0.0 0.0 0.0 0.0 0.0 0.0 0.0 0.0 0.0 0.0 0.0 0.0 0.0 0.0 0.0 0.0 0.0 0.0 0.0 0.0 0.0 0.0 0.0 0.0 0.0 0.0 0.0 0.0 0.0 0.0 0.0 0.0 0.0 0.0 0.0 0.0 0.0 0.0 0.0 0.0 0.0 0.0 0.0 0.0 0.0 0.0 0.0 0.0 0.0 0.0 0.0 0.0 0.0 0.0 0.0 0.0 0.0 0.0 0.0 0.0 0.0 0.0 0.0 0.0 0.0 0.0 0.0 0.0 0.0 0.0 0.0 0.0 0.0 0.0 0.0 0.0 0.0 0.0 0.0 0.0 0.0 0.0 0.0 0.0 0.0 0.0 0.0 0.0 0.0 0.0 0.0 0.0 0.0 0.0 0.0 0.0 0.0 0.0 0.0 0.0 0.0 0.0 0.0 0.0 0.0 
         </DataArray>
        <DataArray type="Float32" Name="GAS TEMPERATURE" format="ascii">
            26.4 26.4 26.4 29.5 29.5 29.5 29.5 29.5 29.5 31.0 31.0 33.7 33.7 33.7 33.7 50.9 50.9 66.6 66.6 66.6 66.6 126.8 126.8 200.9 200.9 200.9 200.9 306.8 306.8 356.5 356.5 356.5 356.5 419.0 419.0 500.0 500.0 500.0 500.0 500.0 500.0 338.3 338.3 338.3 338.3 362.4 362.4 362.4 362.4 362.4 362.4 362.4 362.4 108.6 108.6 108.6 96.3 96.3 96.3 96.3 96.3 96.3 96.3 96.3 26.4 26.4 26.4 30.2 30.2 30.2 30.2 30.2 32.5 32.5 32.5 32.5 32.5 28.8 28.8 28.8 28.8 28.8 28.8 28.8 28.8 33.2 33.2 31.0 31.0 34.4 34.4 34.4 34.4 34.4 34.4 34.4 34.4 60.7 60.7 50.9 50.9 70.5 70.5 70.5 70.5 70.5 70.5 70.5 70.5 135.6 135.6 126.8 126.8 253.3 253.3 253.3 253.3 253.3 253.3 253.3 253.3 253.3 253.3 241.2 241.2 306.8 306.8 401.6 401.6 401.6 401.6 401.6 401.6 401.6 401.6 292.2 292.2 292.2 292.2 419.0 419.0 419.0 419.0 433.2 433.2 433.2 433.2 433.2 433.2 433.2 433.2 267.3 267.3 338.3 338.3 338.3 338.3 359.8 359.8 359.8 359.8 359.8 359.8 106.6 106.6 106.6 105.3 105.3 105.3 105.3 105.3 122.5 122.5 122.5 122.5 122.5 190.8 190.8 190.8 190.8 190.8 190.8 190.8 190.8 28.8 28.8 28.8 28.8 28.8 28.8 28.8 28.8 28.1 28.1 28.1 28.1 30.5 30.5 30.5 30.5 30.5 30.5 30.5 28.7 28.7 28.7 28.7 28.7 35.6 35.6 33.2 33.2 33.0 33.0 33.0 33.0 67.8 67.8 60.7 60.7 59.9 59.9 59.9 59.9 164.1 164.1 135.6 135.6 117.1 117.1 117.1 117.1 214.3 214.3 214.3 214.3 241.2 241.2 241.2 241.2 347.4 347.4 347.4 347.4 222.8 222.8 292.2 292.2 292.2 292.2 347.3 347.3 347.3 347.3 347.3 347.3 212.7 212.7 267.3 267.3 149.7 149.7 149.7 149.7 149.7 149.7 149.7 149.7 48.2 48.2 48.2 79.3 79.3 79.3 79.3 79.3 93.9 93.9 93.9 93.9 77.1 77.1 77.1 77.1 77.1 77.1 77.1 113.4 113.4 113.4 113.4 113.4 113.4 113.4 28.4 28.4 28.4 28.7 28.7 28.7 28.7 28.7 28.7 28.7 28.4 28.4 28.4 28.4 26.6 26.6 26.6 26.6 26.6 26.6 26.6 26.3 26.3 26.3 34.6 34.6 35.6 35.6 30.1 30.1 30.1 30.1 65.5 65.5 65.5 65.5 67.8 67.8 67.8 67.8 43.9 43.9 43.9 43.9 182.9 182.9 164.1 164.1 164.1 164.1 66.8 66.8 66.8 66.8 201.6 201.6 214.3 214.3 214.3 214.3 243.6 243.6 243.6 243.6 243.6 243.6 182.2 182.2 222.8 222.8 255.0 255.0 255.0 255.0 255.0 255.0 255.0 255.0 179.9 179.9 212.7 212.7 99.4 99.4 99.4 99.4 71.7 71.7 71.7 52.4 52.4 52.4 52.4 52.4 52.4 52.4 71.2 71.2 71.2 71.2 74.8 74.8 74.8 74.8 74.8 74.8 74.8 50.4 50.4 50.4 26.2 26.2 26.2 27.3 27.3 27.3 27.3 27.3 27.3 27.3 26.7 26.7 26.7 26.7 26.7 26.7 26.7 26.7 26.7 25.6 25.6 25.6 35.4 35.4 35.4 35.4 34.6 34.6 34.6 34.6 28.3 28.3 28.3 28.3 67.5 67.5 65.5 65.5 65.5 65.5 34.3 34.3 34.3 34.3 34.3 34.3 173.9 173.9 182.9 182.9 38.8 38.8 38.8 38.8 38.8 38.8 38.8 38.8 181.4 181.4 201.6 201.6 67.4 67.4 67.4 67.4 67.4 67.4 138.1 138.1 182.2 182.2 179.1 179.1 179.1 179.1 158.1 158.1 179.9 179.9 124.1 124.1 124.1 124.1 113.1 113.1 113.1 92.0 92.0 92.0 92.0 92.0 92.0 92.0 61.6 61.6 61.6 61.6 65.7 65.7 65.7 65.7 65.7 58.6 58.6 58.6 26.9 26.9 26.9 26.9 26.9 26.9 26.9 26.9 26.2 26.2 26.2 26.2 26.2 26.2 26.2 25.4 25.4 25.4 25.4 25.4 24.7 24.7 24.7 34.1 34.1 34.1 34.1 34.1 34.1 30.1 30.1 26.9 26.9 26.9 26.9 26.9 26.9 56.6 56.6 56.6 56.6 44.3 44.3 29.8 29.8 29.8 29.8 29.8 29.8 29.8 29.8 150.6 150.6 150.6 150.6 64.0 64.0 40.0 40.0 40.0 40.0 183.7 183.7 183.7 183.7 183.7 183.7 122.8 122.8 122.8 122.8 76.0 76.0 76.0 76.0 170.9 170.9 170.9 170.9 170.9 170.9 165.3 165.3 141.6 141.6 141.6 141.6 157.1 157.1 157.1 157.1 157.1 157.1 129.5 129.5 165.6 165.6 165.6 165.6 76.8 76.8 76.8 76.8 76.8 76.8 76.8 76.8 80.4 80.4 80.4 80.4 80.4 80.4 80.4 67.6 67.6 67.6 67.6 67.6 76.6 76.6 76.6 25.2 25.2 25.2 25.2 25.2 25.2 25.2 25.2 25.3 25.3 25.3 30.1 30.1 30.1 30.1 30.1 30.1 30.1 30.1 28.4 28.4 28.4 28.4 44.3 44.3 44.3 44.3 44.3 44.3 36.9 36.9 64.0 64.0 64.0 64.0 64.0 64.0 55.7 55.7 122.8 122.8 122.8 122.8 122.8 122.8 106.1 106.1 165.3 165.3 165.3 165.3 144.5 144.5 129.5 129.5 129.5 129.5 165.6 165.6 82.1 82.1 82.1 82.1 82.1 82.1 107.1 107.1 107.1 
         </DataArray>
        <DataArray type="Float32" Name="HRRPUA" format="ascii">
            0.0 0.0 0.0 0.0 0.0 0.0 0.0 0.0 0.0 0.0 0.0 0.0 0.0 0.0 0.0 0.0 0.0 0.0 0.0 0.0 0.0 0.0 0.0 0.0 0.0 0.0 0.0 0.0 0.0 0.0 0.0 0.0 0.0 0.0 0.0 0.0 0.0 0.0 0.0 0.0 0.0 0.0 0.0 0.0 0.0 0.0 0.0 0.0 0.0 0.0 0.0 0.0 0.0 0.0 0.0 0.0 0.0 0.0 0.0 0.0 0.0 0.0 0.0 0.0 0.0 0.0 0.0 0.0 0.0 0.0 0.0 0.0 0.0 0.0 0.0 0.0 0.0 0.0 0.0 0.0 0.0 0.0 0.0 0.0 0.0 0.0 0.0 0.0 0.0 0.0 0.0 0.0 0.0 0.0 0.0 0.0 0.0 0.0 0.0 0.0 0.0 0.0 0.0 0.0 0.0 0.0 0.0 0.0 0.0 0.0 0.0 0.0 0.0 0.0 0.0 0.0 0.0 0.0 0.0 0.0 0.0 0.0 0.0 0.0 0.0 0.0 0.0 0.0 0.0 0.0 0.0 0.0 0.0 0.0 0.0 0.0 0.0 0.0 0.0 0.0 0.0 0.0 0.0 0.0 0.0 0.0 0.0 0.0 0.0 0.0 0.0 0.0 0.0 0.0 0.0 0.0 0.0 0.0 0.0 0.0 0.0 0.0 0.0 0.0 0.0 0.0 0.0 0.0 0.0 0.0 0.0 0.0 0.0 0.0 0.0 0.0 0.0 0.0 0.0 0.0 0.0 0.0 0.0 0.0 0.0 0.0 0.0 0.0 0.0 0.0 0.0 0.0 0.0 0.0 0.0 0.0 0.0 0.0 0.0 0.0 0.0 0.0 0.0 0.0 0.0 0.0 0.0 0.0 0.0 0.0 0.0 0.0 0.0 0.0 0.0 0.0 0.0 0.0 0.0 0.0 0.0 0.0 0.0 0.0 0.0 0.0 0.0 0.0 0.0 0.0 0.0 0.0 0.0 0.0 0.0 0.0 0.0 0.0 0.0 0.0 0.0 0.0 0.0 0.0 0.0 0.0 0.0 0.0 0.0 0.0 0.0 0.0 0.0 0.0 0.0 0.0 0.0 0.0 0.0 0.0 0.0 0.0 0.0 0.0 0.0 0.0 0.0 0.0 0.0 0.0 0.0 0.0 0.0 0.0 0.0 0.0 0.0 0.0 0.0 0.0 0.0 0.0 0.0 0.0 0.0 0.0 0.0 0.0 0.0 0.0 0.0 0.0 0.0 0.0 0.0 0.0 0.0 0.0 0.0 0.0 0.0 0.0 0.0 0.0 0.0 0.0 0.0 0.0 0.0 0.0 0.0 0.0 0.0 0.0 0.0 0.0 0.0 0.0 0.0 0.0 0.0 0.0 0.0 0.0 0.0 0.0 0.0 0.0 0.0 0.0 0.0 0.0 0.0 0.0 0.0 0.0 0.0 0.0 0.0 0.0 0.0 0.0 0.0 0.0 0.0 0.0 0.0 0.0 0.0 0.0 0.0 0.0 0.0 0.0 0.0 0.0 0.0 0.0 0.0 0.0 0.0 0.0 0.0 0.0 0.0 0.0 0.0 0.0 0.0 0.0 0.0 0.0 0.0 0.0 0.0 0.0 0.0 0.0 0.0 0.0 0.0 0.0 0.0 0.0 0.0 0.0 0.0 0.0 0.0 0.0 0.0 0.0 0.0 0.0 0.0 0.0 0.0 0.0 0.0 0.0 0.0 0.0 0.0 0.0 0.0 0.0 0.0 0.0 0.0 0.0 0.0 0.0 0.0 0.0 0.0 0.0 0.0 0.0 0.0 0.0 0.0 0.0 0.0 0.0 0.0 0.0 0.0 0.0 0.0 0.0 0.0 0.0 0.0 0.0 0.0 0.0 0.0 0.0 0.0 0.0 0.0 0.0 0.0 0.0 0.0 0.0 0.0 0.0 0.0 0.0 0.0 0.0 0.0 0.0 0.0 0.0 0.0 0.0 0.0 0.0 0.0 0.0 0.0 0.0 0.0 0.0 0.0 0.0 0.0 0.0 0.0 0.0 0.0 0.0 0.0 0.0 0.0 0.0 0.0 0.0 0.0 0.0 0.0 0.0 0.0 0.0 0.0 0.0 0.0 0.0 0.0 0.0 0.0 0.0 0.0 0.0 0.0 0.0 0.0 0.0 0.0 0.0 0.0 0.0 0.0 0.0 0.0 0.0 0.0 0.0 0.0 0.0 0.0 0.0 0.0 0.0 0.0 0.0 0.0 0.0 0.0 0.0 0.0 0.0 0.0 0.0 0.0 0.0 0.0 0.0 0.0 0.0 0.0 0.0 0.0 0.0 0.0 0.0 0.0 0.0 0.0 0.0 0.0 0.0 0.0 0.0 0.0 0.0 0.0 0.0 0.0 0.0 0.0 0.0 0.0 0.0 0.0 0.0 0.0 0.0 0.0 0.0 0.0 0.0 0.0 0.0 0.0 0.0 0.0 0.0 0.0 0.0 0.0 0.0 0.0 0.0 0.0 0.0 0.0 0.0 0.0 0.0 0.0 0.0 0.0 0.0 0.0 0.0 0.0 0.0 0.0 0.0 0.0 0.0 0.0 0.0 0.0 0.0 0.0 0.0 0.0 0.0 0.0 0.0 0.0 0.0 0.0 0.0 0.0 0.0 0.0 0.0 0.0 0.0 0.0 0.0 0.0 0.0 0.0 0.0 0.0 0.0 0.0 0.0 0.0 0.0 0.0 0.0 0.0 0.0 0.0 0.0 0.0 0.0 0.0 0.0 0.0 0.0 0.0 0.0 0.0 0.0 0.0 0.0 0.0 0.0 0.0 0.0 0.0 0.0 0.0 0.0 0.0 0.0 0.0 0.0 0.0 0.0 0.0 0.0 0.0 0.0 0.0 0.0 0.0 0.0 0.0 0.0 0.0 0.0 0.0 0.0 0.0 0.0 0.0 0.0 0.0 0.0 0.0 0.0 0.0 0.0 0.0 0.0 0.0 0.0 0.0 0.0 0.0 0.0 0.0 0.0 0.0 0.0 0.0 0.0 0.0 0.0 0.0 0.0 
         </DataArray>
    </CellData>
    <Polys>
        <DataArray type="Int32" Name="connectivity" format="ascii">