<?xml version="1.0"?>
<VTKFile type="PolyData" version="1.0" byte_order="LittleEndian" header_type="UInt64">
<PolyData>
<Piece NumberOfPoints="84" NumberOfVerts="0" NumberOfLines="0" NumberOfPolys="0">
    <Points>
        <DataArray type="Float32" NumberOfComponents="3" format="ascii">
        13.1540 17.2234 4.7636 13.9799 15.5877 2.2643 10.7092 16.8455 5.3884 11.5994 16.5495 5.8793 12.6256 15.3257 3.3241 14.0300 15.3608 2.4766 13.2908 15.4718 3.1091 10.3543 16.8955 6.5100 14.5480 15.8825 8.3940 12.0055 15.4852 4.6404 11.1839 16.2017 7.1111 14.1687 15.5995 8.3940 11.8548 15.5529 5.0289 12.7806 15.1792 4.0466 11.6510 16.2229 5.4307 12.5186 15.8500 3.5770 14.3471 17.9888 5.9142 14.6429 15.4975 8.3940 14.5494 17.3381 5.3760 9.3734 15.2575 7.3574 14.4679 17.1839 5.0209 14.3624 17.2086 5.0933 11.8165 18.9507 6.9653 14.5956 15.4894 8.3940 12.8354 18.1087 6.9632 12.0251 18.3932 7.0341 14.0179 16.7380 5.2847 14.4642 18.3017 5.1173 14.4507 19.8960 6.3325 14.1106 18.1782 5.9463 14.4083 15.9987 3.9103 14.1665 17.3391 5.5697 14.1397 19.0714 6.1373 10.7855 16.6205 6.6752 11.5990 17.1335 6.7330 12.6722 17.8044 6.7634 14.4456 17.3953 5.2301 13.9752 18.2007 6.2825 12.4926 18.1813 6.9845 13.6738 18.5453 6.3798 13.6581 18.6356 6.3354 12.9379 23.5995 7.7231 13.7007 18.7592 6.2144 7.7100 17.1161 7.5547 11.0258 18.3479 7.2161 11.9053 17.5131 6.7589 11.5789 17.4460 6.8958 9.2756 20.8861 7.7916 13.9028 15.9795 3.7371 13.4419 17.0241 5.2926 11.6037 17.5520 6.9269 13.8517 16.4731 4.4946 11.7478 15.8408 5.5660 13.9263 15.9343 3.8783 14.1865 15.8586 4.7098 11.4153 17.3118 6.8970 12.2881 16.4100 5.4967 12.6084 17.6606 6.5654 12.0176 17.4536 6.6364 11.9182 15.5096 5.2605 12.1047 16.9658 6.1551 13.9951 17.1448 5.7754 13.2215 15.4635 3.7091 12.6219 16.4103 5.2942 14.6557 15.3754 8.3940 12.7253 16.6762 5.5470 12.1419 15.9998 5.3587 14.1359 16.7961 6.6010 12.7371 15.5817 6.0555 11.7205 15.5748 6.4105 13.2724 16.9390 5.9790 14.5764 15.3072 8.3940 12.8497 15.8503 4.9072 14.7054 15.3070 8.3940 12.6331 15.6138 4.6496 13.4890 15.4126 5.1306 13.3847 15.5406 6.1321 12.0569 15.1098 4.6695 13.7982 15.1757 8.3940 14.0435 15.2037 8.3940 14.1171 23.9189 7.7329 10.2388 16.6379 7.8023 14.7723 15.1966 8.3940 14.5805 15.1570 8.3940 
        </DataArray>
    </Points>
    <PointData>
        <DataArray type="Float32" Name="tag" format="ascii">
            480803.0000 475611.0000 469711.0000 490367.0000 473143.0000 482547.0000 481243.0000 477823.0000 64607.0000 486263.0000 488383.0000 54415.0000 495715.0000 490383.0000 492283.0000 493483.0000 558007.0000 90303.0000 547515.0000 485979.0000 534471.0000 543887.0000 567411.0000 90283.0000 544379.0000 566055.0000 575703.0000 561903.0000 561419.0000 563451.0000 550267.0000 534595.0000 557927.0000 504287.0000 549243.0000 560223.0000 561695.0000 572027.0000 572519.0000 572295.0000 568523.0000 551043.0000 567211.0000 498603.0000 561623.0000 552051.0000 562283.0000 568967.0000 558427.0000 555683.0000 567059.0000 567127.0000 537715.0000 461735.0000 571883.0000 545279.0000 563899.0000 563987.0000 571843.0000 541235.0000 572547.0000 576839.0000 552079.0000 574183.0000 115923.0000 576767.0000 497371.0000 469407.0000 587479.0000 588719.0000 580643.0000 111607.0000 565667.0000 121079.0000 554635.0000 577379.0000 570411.0000 547667.0000 59667.0000 68047.0000 537831.0000 583571.0000 129175.0000 123259.0000 
         </DataArray>
    </PointData>
</Piece>
</PolyData>
</VTKFile>