<?xml version="1.0"?>
<VTKFile type="PolyData" version="1.0" byte_order="LittleEndian" header_type="UInt64">
<PolyData>
<Piece NumberOfPoints="22" NumberOfVerts="0" NumberOfLines="0" NumberOfPolys="0">
    <Points>
        <DataArray type="Float32" NumberOfComponents="3" format="ascii">
        14.7268 6.8279 6.7296 14.3260 7.2977 5.9719 14.2568 7.8857 5.0265 14.3258 8.1200 5.4576 13.6237 7.6228 6.2019 14.6187 7.0038 6.2766 13.7815 8.0645 6.0216 13.7134 8.1057 6.0320 14.6900 8.6943 4.7288 14.4018 8.3100 4.9011 14.1296 7.7629 6.1829 14.9143 9.2082 4.0299 13.5977 7.9022 6.1538 14.0499 6.6457 6.3827 14.5919 6.8567 6.4493 11.8570 4.5952 7.8262 13.2417 7.5359 6.6153 12.9343 7.1685 7.0951 14.5043 7.0532 6.9826 13.6216 9.5537 7.6176 14.5984 3.0261 7.3304 14.6047 11.0633 7.9372 
        </DataArray>
    </Points>
    <PointData>
        <DataArray type="Float32" Name="tag" format="ascii">
            19307.0000 21911.0000 29411.0000 21751.0000 15139.0000 30607.0000 18383.0000 20847.0000 26219.0000 26923.0000 18851.0000 23767.0000 28435.0000 33571.0000 33583.0000 25915.0000 29691.0000 21271.0000 14587.0000 77379.0000 39535.0000 79331.0000 
         </DataArray>
    </PointData>
</Piece>
</PolyData>
</VTKFile>