<?xml version="1.0"?>
<VTKFile type="PolyData" version="1.0" byte_order="LittleEndian" header_type="UInt64">
<PolyData>
<Piece NumberOfPoints="158" NumberOfVerts="0" NumberOfLines="0" NumberOfPolys="0">
    <Points>
        <DataArray type="Float32" NumberOfComponents="3" format="ascii">
        14.7031 5.7109 6.4139 14.9639 8.5545 2.6278 14.4426 8.7319 3.4984 14.5860 9.3162 2.9748 14.5217 9.3126 3.0727 14.8170 8.8879 3.1704 14.4429 9.0645 3.3545 14.5824 7.4819 3.7132 14.0306 7.9215 4.8157 14.9002 7.1492 4.8897 13.7176 9.7448 2.2219 14.6782 3.5994 4.6063 14.1368 7.2321 4.0974 14.7389 8.4340 2.2732 14.5750 6.9531 3.4968 14.2642 7.0044 5.4976 13.5794 5.8384 7.0346 14.4752 9.2753 4.2251 13.6634 5.7267 6.9315 13.9918 7.1647 5.6196 14.7077 8.7261 4.2260 14.6262 8.4536 3.5639 14.6579 9.9076 3.9813 14.4889 9.8249 4.4817 14.6324 8.8686 4.0552 14.7985 8.5295 2.2301 14.5532 9.3631 3.7113 14.5246 6.3911 5.4442 14.6504 9.1955 3.6828 14.6644 9.9103 4.0214 14.3091 6.4899 5.0501 14.9596 10.1612 3.5915 14.4546 12.3810 6.6189 14.7645 7.9042 2.7171 14.6065 6.5960 4.9489 14.8771 8.5627 2.5206 12.2871 3.8185 6.8685 14.8846 10.9285 3.2362 14.2533 8.0259 4.3698 12.1717 2.9156 7.4960 13.0934 4.9591 6.2053 14.8345 7.4581 3.5326 14.4826 8.0309 3.8404 14.7711 8.2094 3.3673 14.4541 8.1200 4.3922 14.6318 8.4848 4.1763 14.5500 8.2788 4.3450 14.7980 8.6381 3.6294 14.8482 9.1651 3.4195 14.4463 5.9963 5.8254 14.9549 7.6456 4.6716 14.7171 8.6874 4.6073 14.8072 6.0523 6.6287 12.0915 8.3151 6.5000 12.9409 9.6765 5.2745 12.7776 7.8619 6.2535 13.3782 9.2016 5.1579 13.7260 9.1277 4.4336 12.9604 9.9032 5.9665 14.4859 5.0356 7.0108 12.7723 6.9390 6.4811 13.3249 10.6625 5.3199 12.8543 6.6871 6.4416 13.4553 10.0489 5.1370 14.1228 9.0211 4.8482 14.8660 6.8697 5.1914 13.4972 10.3148 4.4857 11.6029 7.9565 7.0272 11.4166 9.5261 6.9072 11.6584 9.1871 6.8188 13.6943 10.5562 4.5192 13.6119 10.1479 3.9118 13.2936 9.5684 4.6579 13.4518 8.1366 5.2745 12.5011 9.8911 6.1728 13.6735 7.6051 5.4817 14.0726 10.6457 3.5936 13.6105 7.8956 5.3366 13.3531 9.5237 4.6307 13.9821 9.6246 3.1403 13.8613 6.6035 5.9541 13.6142 8.9653 4.5914 14.6066 8.5673 3.8268 14.2470 8.2783 4.5604 14.1234 10.2880 3.5672 13.9114 9.7226 3.4324 12.3903 6.8692 6.6248 13.9414 6.5670 6.0436 13.0408 5.6242 7.3516 13.0781 4.3188 6.9949 14.5163 9.4208 2.6212 14.6286 9.4873 2.3209 13.6615 9.4467 4.7417 13.9569 9.4081 4.0323 13.8966 9.1309 4.1895 11.9168 7.2082 7.0221 13.8865 9.4672 4.1671 12.8085 7.0290 6.3273 13.9466 8.9018 4.5372 13.1979 8.1360 5.7138 14.3921 9.8469 2.8023 13.8006 7.8216 5.3938 14.5190 9.2487 3.0945 12.8390 3.7900 6.8752 14.8300 9.0438 3.1136 12.9398 3.8519 6.7481 13.6998 6.1036 6.6627 14.5333 9.2046 3.2784 13.8440 5.6128 6.8978 14.1029 8.9464 4.7439 13.4669 7.9061 5.6357 14.2216 7.7835 5.0824 14.6983 9.6253 2.6493 14.7276 8.3087 4.2653 14.5417 7.3593 4.8933 14.0566 7.6323 5.3759 14.6406 9.2537 4.0039 13.2089 4.9072 7.3220 14.5440 5.6622 5.9425 13.5429 7.7385 5.9647 12.2765 4.1478 7.3778 14.3745 7.0040 5.7195 14.4946 5.5515 5.9867 13.1778 6.6954 6.5186 14.7533 5.1078 5.5803 14.7901 6.5683 4.5632 13.8531 8.0113 5.6571 13.6400 4.3817 6.6475 14.0729 4.9953 6.6731 14.0379 7.1977 6.0979 13.9130 5.9778 7.3179 14.7659 6.7678 4.9000 13.8324 8.0535 5.6467 14.9871 7.8635 5.0025 14.2666 5.4640 6.1338 14.3488 4.7079 5.9582 12.9404 2.0458 7.6859 14.5645 7.5132 5.0862 13.4415 6.4703 6.4856 14.6957 8.8882 4.3232 14.7948 7.8646 4.6224 14.2836 4.6550 6.2992 13.7920 4.1882 6.2159 14.7329 11.2417 2.8148 14.3762 11.1618 3.3891 14.8495 7.1645 5.5189 13.6687 6.6527 7.1893 14.5279 6.7225 6.5458 14.5294 8.4158 6.1045 14.1935 6.1497 7.2262 14.6231 6.7141 6.4017 13.9166 6.5079 7.1723 14.3682 5.9566 7.2564 14.7224 12.4501 8.3940 14.7584 11.9891 8.3940 14.7606 8.1542 5.7461 14.4591 6.9289 6.3264 14.3272 7.4756 6.0281 
        </DataArray>
    </Points>
    <PointData>
        <DataArray type="Float32" Name="tag" format="ascii">
            19307.0000 21911.0000 15139.0000 18383.0000 20847.0000 18851.0000 28435.0000 33571.0000 29691.0000 14587.0000 77379.0000 39535.0000 98559.0000 97267.0000 97911.0000 79995.0000 80015.0000 87707.0000 84131.0000 83247.0000 82583.0000 95439.0000 89335.0000 84467.0000 92131.0000 96599.0000 91423.0000 92939.0000 92919.0000 87995.0000 86623.0000 81939.0000 89763.0000 98111.0000 93455.0000 93683.0000 88435.0000 76475.0000 89155.0000 90599.0000 92787.0000 95467.0000 93607.0000 94843.0000 91279.0000 77883.0000 84863.0000 93471.0000 84967.0000 84695.0000 77663.0000 141215.0000 136783.0000 160427.0000 160103.0000 171079.0000 167843.0000 167635.0000 159383.0000 147207.0000 174479.0000 158219.0000 165831.0000 159167.0000 171279.0000 142447.0000 158299.0000 163851.0000 151143.0000 158659.0000 157131.0000 159087.0000 157879.0000 155991.0000 160523.0000 153147.0000 158987.0000 152283.0000 156507.0000 160043.0000 151567.0000 155583.0000 155039.0000 157419.0000 160747.0000 164523.0000 166163.0000 154447.0000 162731.0000 154219.0000 155871.0000 160759.0000 164431.0000 162587.0000 168415.0000 171367.0000 162051.0000 171795.0000 164587.0000 171507.0000 166107.0000 165731.0000 166051.0000 158847.0000 158755.0000 157291.0000 162183.0000 166075.0000 160667.0000 169935.0000 167647.0000 169999.0000 168335.0000 166183.0000 157543.0000 169595.0000 171031.0000 170991.0000 153783.0000 177835.0000 176091.0000 176035.0000 152703.0000 177575.0000 149647.0000 152259.0000 174579.0000 156719.0000 156559.0000 183111.0000 184647.0000 155291.0000 176099.0000 174567.0000 155419.0000 154407.0000 186435.0000 171107.0000 176551.0000 173075.0000 167619.0000 151171.0000 157191.0000 76863.0000 76783.0000 183119.0000 227819.0000 213079.0000 213715.0000 208503.0000 211987.0000 216539.0000 208675.0000 63887.0000 58819.0000 209947.0000 211439.0000 217631.0000 
         </DataArray>
    </PointData>
</Piece>
</PolyData>
</VTKFile>