<?xml version="1.0"?>
<VTKFile type="PolyData" version="1.0" byte_order="LittleEndian" header_type="UInt64">
<PolyData>
<Piece NumberOfPoints="4261" NumberOfVerts="0" NumberOfLines="0" NumberOfPolys="0">
    <Points>
        <DataArray type="Float32" NumberOfComponents="3" format="ascii">
        16.9213 9.9631 2.4100 15.7465 9.6984 4.0907 16.3306 10.0000 4.4223 16.3919 11.4022 0.8823 15.8514 7.4085 1.3242 19.8558 6.9285 3.0421 16.7606 10.0000 3.4523 17.1104 10.0000 1.7408 19.5585 10.0461 8.3940 19.7340 10.4532 8.3940 17.1503 10.1192 2.6873 17.8959 9.9997 3.3112 18.2263 9.1949 8.3940 20.3160 13.2101 8.3940 18.4214 9.8919 2.7350 18.1615 8.9241 8.3940 18.3267 9.3997 3.8426 20.4286 12.6014 8.3940 20.0819 14.5705 8.3940 20.5029 12.4194 8.3940 20.4094 13.6716 8.3940 20.4268 13.6295 8.3940 20.2049 11.5508 8.3940 19.3589 9.9380 8.3940 19.6351 4.5335 4.5772 18.5366 11.0573 6.7234 15.4330 9.7803 2.4115 18.8605 9.6036 8.3940 16.7691 8.9521 8.3940 17.0452 8.8576 8.3940 19.9115 14.6516 8.3940 17.3837 7.5205 5.8158 17.9474 8.8902 8.3940 15.2081 9.0936 8.3940 19.9135 10.5690 8.3940 16.3869 8.7504 8.3940 19.2520 9.7724 8.3940 18.0351 9.0589 8.3940 19.2197 10.2027 8.3940 20.4827 12.4065 8.3940 18.2255 9.1121 8.3940 15.6399 9.2223 8.3940 19.8484 11.0397 8.3940 16.6332 11.4571 0.4955 20.0958 13.3392 8.3940 15.0194 9.0949 3.9902 15.9763 8.8177 8.3940 16.5662 8.8225 8.3940 19.6827 10.4745 8.3940 19.6712 10.5389 8.3940 16.1972 10.0000 2.4419 15.2572 7.9268 3.9060 19.9807 14.1368 8.3940 20.3157 13.1146 8.3940 15.2816 9.4486 8.3940 17.7974 9.1292 8.3940 19.8420 10.9533 8.3940 19.5456 10.4144 8.3940 16.4699 13.4006 0.6115 15.3589 8.6880 4.1830 16.5045 4.3280 2.5553 19.3000 9.9776 8.3940 20.3294 12.0135 8.3940 20.2935 12.9945 8.3940 16.0565 12.5421 1.7865 18.9637 9.6398 8.3940 16.0282 13.2471 1.6540 16.9916 9.2268 8.3940 17.4914 8.9368 8.3940 20.0024 12.3886 8.3940 19.7046 14.1846 8.3940 19.9355 13.6362 8.3940 20.0010 12.3314 8.3940 19.0852 14.8495 8.3940 19.8392 11.4386 8.3940 19.6957 14.5999 8.3940 18.2605 9.5625 8.3940 15.7227 9.9440 2.2491 19.4395 10.7399 8.3940 19.8788 11.1469 8.3940 16.4456 9.0600 8.3940 19.9796 12.1816 8.3940 19.5849 14.3848 8.3940 20.2048 12.6636 8.3940 20.2455 12.1465 8.3940 17.8878 9.1991 8.3940 17.7748 9.1395 8.3940 18.0181 9.5298 8.3940 19.8189 11.6168 8.3940 19.5359 10.5603 8.3940 19.9552 12.2029 8.3940 15.4200 9.1603 8.3940 19.5318 10.4815 8.3940 18.8686 14.8459 8.3940 19.6995 13.7084 8.3940 16.0204 9.0753 8.3940 19.3209 14.7791 8.3940 19.1557 14.8102 8.3940 19.9268 12.5099 8.3940 19.1995 10.5197 8.3940 20.1573 11.8697 8.3940 16.8330 9.1626 8.3940 19.9936 11.3273 8.3940 19.3782 14.8390 8.3940 19.8274 12.1745 8.3940 19.9350 13.7632 8.3940 19.9594 12.2935 8.3940 16.9056 9.0118 8.3940 19.9171 13.9262 8.3940 19.7727 13.7724 8.3940 19.5969 10.9563 8.3940 15.8063 9.1730 8.3940 19.3511 14.4607 8.3940 19.9749 12.1898 8.3940 18.5185 9.7567 8.3940 18.5678 9.8268 8.3940 19.6513 10.8064 8.3940 16.6072 5.1232 3.1537 16.7066 9.2979 8.3940 19.7640 14.0292 8.3940 15.5145 9.5561 8.3940 19.4553 14.6876 8.3940 19.4294 10.6972 8.3940 19.4178 14.3978 8.3940 19.2174 10.5956 8.3940 17.0476 9.8982 2.8718 16.3683 9.4280 8.3940 19.7919 13.1841 8.3940 19.7620 12.6550 8.3940 18.2987 9.8529 8.3940 19.6872 11.6410 8.3940 15.5428 9.4287 8.3940 18.5113 9.9396 8.3940 19.6936 11.9961 8.3940 20.0381 12.5427 8.3940 19.6566 13.3157 8.3940 19.5069 14.0691 8.3940 19.2530 14.0702 8.3940 19.8289 12.3151 8.3940 19.8343 13.2803 8.3940 19.6179 13.6162 8.3940 19.2776 14.3339 8.3940 19.0154 14.7100 8.3940 15.7587 9.4466 8.3940 16.1108 9.5263 8.3940 19.8008 12.4523 8.3940 16.8180 9.3337 8.3940 19.0847 10.3555 8.3940 16.5413 11.3246 2.6838 19.8970 11.6645 8.3940 19.9018 11.5777 8.3940 18.5308 9.7874 8.3940 19.4460 10.8915 8.3940 19.1130 14.6369 8.3940 18.4858 9.7171 8.3940 17.6009 9.4862 8.3940 15.7995 9.3867 8.3940 19.5406 14.5170 8.3940 16.8545 6.3608 1.0552 18.9125 14.7987 8.3940 19.2400 10.6490 8.3940 19.7455 11.0415 8.3940 18.0461 9.3655 8.3940 19.2951 10.6742 8.3940 20.0495 12.2197 8.3940 19.7253 11.3190 8.3940 19.2092 14.6809 8.3940 18.7768 10.2390 8.3940 19.8202 12.6984 8.3940 19.0711 10.4406 8.3940 20.0097 12.3498 8.3940 15.2509 9.3470 8.3940 16.5614 9.4374 8.3940 19.7449 11.8364 8.3940 17.6463 9.4759 8.3940 19.7678 12.3276 8.3940 17.4423 9.2408 8.3940 19.4118 14.0709 8.3940 18.8614 10.4210 8.3940 19.7768 12.2509 8.3940 19.7778 11.5886 8.3940 17.7465 9.7410 8.3940 19.4877 14.1860 8.3940 15.4167 9.5143 8.3940 15.1509 9.8669 8.3940 19.2630 14.4489 8.3940 19.1781 14.2188 8.3940 17.7054 10.0000 2.6057 17.2345 9.5094 8.3940 19.0136 10.3715 8.3940 15.9367 8.0196 5.2109 17.5953 10.0000 1.4601 17.2753 10.8534 4.6967 18.8922 10.2322 8.3940 18.9477 14.5388 8.3940 18.8308 14.5435 8.3940 18.8506 10.1643 8.3940 19.7360 12.8475 8.3940 17.5567 6.3419 3.4717 15.5208 9.8110 8.3940 19.7196 12.2574 8.3940 19.5803 13.6553 8.3940 17.7047 10.4621 1.9967 15.5161 9.4822 8.3940 18.6790 9.9928 8.3940 19.5796 13.7849 8.3940 16.6993 6.4964 2.9495 19.8055 12.4896 8.3940 19.2579 11.1452 8.3940 19.0630 11.0256 8.3940 19.3202 14.2922 8.3940 18.7868 14.5005 8.3940 19.5401 11.0358 8.3940 19.9342 12.2689 8.3940 17.6828 10.9136 0.6424 16.4409 9.4712 8.3940 18.3179 10.2934 8.3940 18.6665 10.3058 8.3940 19.6404 11.4393 8.3940 19.3380 13.8751 8.3940 17.1991 9.7369 8.3940 16.4772 9.4738 8.3940 19.1776 11.0256 8.3940 18.8308 14.4834 8.3940 15.8481 9.6646 8.3940 18.9895 14.6682 8.3940 19.3851 11.6189 8.3940 17.8505 9.9956 8.3940 19.6214 13.6480 8.3940 16.5085 9.5065 8.3940 18.8183 14.4869 8.3940 16.9171 9.3777 8.3940 19.7441 12.7545 8.3940 15.9340 9.7746 8.3940 19.4293 13.9766 8.3940 15.7325 9.5937 8.3940 19.5709 11.2460 8.3940 16.5115 9.7021 8.3940 18.7192 14.7499 8.3940 16.5273 9.6620 8.3940 18.6151 9.9885 8.3940 19.7949 12.5569 8.3940 15.6193 9.8177 8.3940 19.5872 13.5830 8.3940 17.8774 7.3074 1.6024 18.7688 10.4185 8.3940 19.6545 13.8801 8.3940 15.7611 9.4438 8.3940 18.7441 10.4586 8.3940 19.2829 14.2272 8.3940 19.4557 11.3584 8.3940 18.8321 10.0494 8.3940 19.7053 12.3379 8.3940 17.9337 9.6592 8.3940 16.9737 9.4966 8.3940 19.6932 13.1853 8.3940 15.8753 9.4195 8.3940 19.5057 11.9181 8.3940 19.8413 13.1662 8.3940 19.1808 14.5991 8.3940 17.3352 10.9837 1.9701 16.7302 9.4153 8.3940 17.6956 9.7622 8.3940 16.2899 9.2929 8.3940 18.2234 10.0392 8.3940 17.5406 9.7418 8.3940 19.4613 11.7205 8.3940 16.5144 9.6643 8.3940 18.9867 14.6567 8.3940 18.2485 10.1233 8.3940 19.0912 14.3163 8.3940 19.5205 11.6451 8.3940 19.3391 13.9432 8.3940 19.1689 14.2906 8.3940 19.5582 11.3792 8.3940 16.7296 9.3694 8.3940 16.9048 9.6712 8.3940 16.1178 9.5898 8.3940 19.3445 11.2046 8.3940 18.9129 14.5839 8.3940 19.0367 14.0487 8.3940 19.8241 13.1037 8.3940 15.5625 9.8446 8.3940 17.2632 9.5147 8.3940 15.4578 9.6269 8.3940 19.7871 12.6093 8.3940 19.5225 11.2706 8.3940 15.8491 9.6625 8.3940 19.3727 13.6395 8.3940 19.2665 14.0379 8.3940 19.8416 12.2495 8.3940 19.1564 10.9627 8.3940 18.5325 10.3364 8.3940 16.7226 9.4157 8.3940 19.7324 12.5087 8.3940 15.3858 6.3234 5.1571 19.6215 12.0229 8.3940 17.1466 9.6108 8.3940 16.4141 9.5110 8.3940 19.4248 12.9483 8.3940 17.9438 9.6889 8.3940 19.3270 12.6444 8.3940 19.6272 12.3631 8.3940 19.3239 14.2294 8.3940 19.0889 14.3130 8.3940 19.5102 12.7026 8.3940 18.7660 14.5610 8.3940 18.0983 9.8298 8.3940 19.1592 11.3473 8.3940 17.5926 9.8986 8.3940 17.8734 8.9584 0.6161 18.1628 7.5495 1.5898 19.3883 11.3592 8.3940 18.4873 14.7899 8.3940 18.5983 10.3668 8.3940 19.1609 11.5278 8.3940 15.5761 9.9185 8.3940 17.4922 9.9221 8.3940 19.5930 12.7970 8.3940 18.4141 14.6909 8.3940 18.7150 14.6177 8.3940 17.4970 9.7222 8.3940 16.3334 9.4949 8.3940 17.7896 9.8165 8.3940 19.6126 13.2114 8.3940 16.1551 9.5554 8.3940 15.1949 10.1862 8.3940 16.6576 9.6093 8.3940 17.6461 9.7928 8.3940 15.8793 9.8497 8.3940 15.1899 9.7603 8.3940 17.2874 9.8455 8.3940 19.6031 12.8259 8.3940 19.6915 12.9278 8.3940 17.2342 9.8722 8.3940 19.3657 13.0583 8.3940 18.5571 14.6519 8.3940 19.6293 12.0612 8.3940 19.4967 13.2050 8.3940 19.4386 12.3490 8.3940 15.1996 14.8210 8.3940 17.0965 9.4497 8.3940 17.6796 9.6348 8.3940 16.5950 9.6608 8.3940 17.1267 6.2914 1.5570 19.1934 13.7899 8.3940 15.7035 9.6883 8.3940 18.6004 10.5637 8.3940 19.0142 10.7733 8.3940 15.4505 5.7389 3.3294 18.6976 10.7132 8.3940 18.1350 10.0115 8.3940 19.5127 12.1258 8.3940 16.8521 9.7782 8.3940 18.9020 14.1096 8.3940 18.5876 14.7966 8.3940 18.7332 14.3998 8.3940 18.1349 10.2722 8.3940 15.1614 10.0924 8.3940 17.5786 9.6882 8.3940 19.4079 13.6155 8.3940 16.5884 9.6982 8.3940 19.1382 11.0762 8.3940 19.7477 12.4314 8.3940 18.0005 9.8508 8.3940 18.7627 14.3763 8.3940 18.6882 10.7537 8.3940 15.6853 9.9326 8.3940 16.1554 9.7533 8.3940 18.7163 14.8208 8.3940 19.1471 13.8954 8.3940 19.2874 11.2035 8.3940 18.3154 14.7605 8.3940 17.4468 9.6824 8.3940 19.3384 12.3482 8.3940 18.3299 10.0994 8.3940 16.2490 9.8005 8.3940 17.7486 9.9189 8.3940 17.4111 9.6184 8.3940 19.5043 12.0809 8.3940 18.7098 10.4739 8.3940 17.7922 9.8056 8.3940 17.3894 9.9643 8.3940 17.4167 9.7093 8.3940 17.7754 9.7442 8.3940 18.9210 10.7668 8.3940 19.1946 11.0444 8.3940 18.4959 10.4731 8.3940 19.2335 11.0342 8.3940 19.0764 13.7897 8.3940 19.3033 12.8810 8.3940 16.8893 9.8777 8.3940 18.8244 10.8506 8.3940 15.4729 10.0989 8.3940 15.7898 9.7079 8.3940 18.9099 14.0141 8.3940 19.1464 11.4290 8.3940 18.3049 10.4986 8.3940 18.7836 14.5630 8.3940 16.7680 9.8998 8.3940 15.7127 9.8771 8.3940 16.8951 9.8534 8.3940 17.9290 10.1550 8.3940 18.8288 14.1644 8.3940 19.1551 8.5880 8.3940 18.4438 11.5483 8.3940 17.0489 6.5529 8.3940 19.2096 10.3194 8.3940 18.6605 7.2412 8.3940 15.7525 6.6660 8.3940 15.0271 8.8449 0.5240 18.4160 7.2265 8.3940 19.3128 9.3338 8.3940 18.3226 7.4503 8.3940 18.9025 10.7880 8.3940 15.3538 11.7844 8.3940 16.1424 12.0617 8.3940 15.6690 7.0516 8.3940 18.5513 11.4201 8.3940 19.5222 10.2319 8.3940 18.6587 7.4381 8.3940 17.3220 6.8194 8.3940 18.8129 7.5560 8.3940 16.4537 12.3882 8.3940 19.5703 10.0373 8.3940 17.4212 12.1055 8.3940 15.2188 11.6116 8.3940 15.7084 11.9762 8.3940 18.4395 7.1541 8.39
[...]
    <PointData>
        <DataArray type="Float32" Name="tag" format="ascii">
            10611.0000 14587.0000 30607.0000 33571.0000 39535.0000 66299.0000 47311.0000 48039.0000 48363.0000 50039.0000 50047.0000 50735.0000 55283.0000 57183.0000 60495.0000 60563.0000 62419.0000 62951.0000 63815.0000 63927.0000 64587.0000 65551.0000 66439.0000 66479.0000 66523.0000 72203.0000 86623.0000 67267.0000 69479.0000 69491.0000 70911.0000 72047.0000 73115.0000 74755.0000 74839.0000 75595.0000 75631.0000 75651.0000 75683.0000 75719.0000 77315.0000 77351.0000 77451.0000 77663.0000 79911.0000 79995.0000 79999.0000 80831.0000 81759.0000 83415.0000 84667.0000 84695.0000 85127.0000 85171.0000 85227.0000 85959.0000 86047.0000 86067.0000 91603.0000 92939.0000 102899.0000 86895.0000 86915.0000 86999.0000 87707.0000 87807.0000 87995.0000 89475.0000 90231.0000 90363.0000 90915.0000 90963.0000 91823.0000 92415.0000 93203.0000 93219.0000 93343.0000 93455.0000 93983.0000 94103.0000 94623.0000 95307.0000 95419.0000 97871.0000 97887.0000 97919.0000 97923.0000 97939.0000 98015.0000 98019.0000 100295.0000 100303.0000 100319.0000 100331.0000 100383.0000 101083.0000 101127.0000 101167.0000 101279.0000 101991.0000 102159.0000 102287.0000 102335.0000 103039.0000 103075.0000 104007.0000 104159.0000 104183.0000 104903.0000 104923.0000 104979.0000 105639.0000 105775.0000 106419.0000 106487.0000 106531.0000 106683.0000 106723.0000 120615.0000 119071.0000 112803.0000 111103.0000 120519.0000 123519.0000 124311.0000 118167.0000 115931.0000 119699.0000 114371.0000 120467.0000 110191.0000 123451.0000 112655.0000 117423.0000 119647.0000 116519.0000 121143.0000 124231.0000 119615.0000 114323.0000 118859.0000 112591.0000 112587.0000 115831.0000 118847.0000 118039.0000 126603.0000 118835.0000 109327.0000 118011.0000 122615.0000 125743.0000 107295.0000 107391.0000 107483.0000 108099.0000 108195.0000 108231.0000 108459.0000 109035.0000 109983.0000 110759.0000 110831.0000 110903.0000 111475.0000 111515.0000 111623.0000 111655.0000 113155.0000 113419.0000 113447.0000 114915.0000 114943.0000 117167.0000 118591.0000 120111.0000 120251.0000 121031.0000 121611.0000 121651.0000 123099.0000 123219.0000 123227.0000 124043.0000 124659.0000 124799.0000 124823.0000 125439.0000 125547.0000 126351.0000 126479.0000 136687.0000 130987.0000 129239.0000 129223.0000 130079.0000 140543.0000 129147.0000 130015.0000 128347.0000 128339.0000 136319.0000 132687.0000 134423.0000 134395.0000 141259.0000 137295.0000 143831.0000 146619.0000 146611.0000 129943.0000 143815.0000 135259.0000 131651.0000 129919.0000 130631.0000 145639.0000 139651.0000 142919.0000 145607.0000 146567.0000 140379.0000 131583.0000 142891.0000 143731.0000 129859.0000 145547.0000 142859.0000 132507.0000 142823.0000 135139.0000 139583.0000 146515.0000 140307.0000 145475.0000 142775.0000 127299.0000 141115.0000 140303.0000 136147.0000 136143.0000 142003.0000 136135.0000 144575.0000 133359.0000 144551.0000 127103.0000 127123.0000 128059.0000 128067.0000 128115.0000 128847.0000 129623.0000 129799.0000 130475.0000 131415.0000 132207.0000 132307.0000 132423.0000 132439.0000 133063.0000 133111.0000 133123.0000 133211.0000 134147.0000 134151.0000 134899.0000 134927.0000 134947.0000 135787.0000 135839.0000 136003.0000 136027.0000 136103.0000 136755.0000 136943.0000 137687.0000 137691.0000 137771.0000 137843.0000 137867.0000 137975.0000 138683.0000 138711.0000 138787.0000 139395.0000 139491.0000 140147.0000 140171.0000 140879.0000 140919.0000 141047.0000 141631.0000 141659.0000 141715.0000 141775.0000 141823.0000 141867.0000 142691.0000 143455.0000 143639.0000 144259.0000 144415.0000 144479.0000 145187.0000 145287.0000 145295.0000 146147.0000 146207.0000 146247.0000 147819.0000 150499.0000 148495.0000 151211.0000 152203.0000 155915.0000 149359.0000 149355.0000 158735.0000 158719.0000 150235.0000 150227.0000 151103.0000 160563.0000 154891.0000 156843.0000 150207.0000 153015.0000 157683.0000 160535.0000 147339.0000 154871.0000 152995.0000 152103.0000 160507.0000 152099.0000 154863.0000 147143.0000 147211.0000 147235.0000 147239.0000 147283.0000 147287.0000 147983.0000 148067.0000 148275.0000 148867.0000 149087.0000 149103.0000 149179.0000 149903.0000 149991.0000 150079.0000 150911.0000 150935.0000 150975.0000 150999.0000 151003.0000 151699.0000 151723.0000 151823.0000 151971.0000 151999.0000 152039.0000 152087.0000 152867.0000 152891.0000 152895.0000 152971.0000 152975.0000 153535.0000 153651.0000 153831.0000 153943.0000 153959.0000 154519.0000 154587.0000 154719.0000 154743.0000 154819.0000 155431.0000 155447.0000 155675.0000 156587.0000 156607.0000 156799.0000 157319.0000 157447.0000 157579.0000 158259.0000 158655.0000 159143.0000 159303.0000 159331.0000 159371.0000 159395.0000 159435.0000 160111.0000 160151.0000 160207.0000 160311.0000 160395.0000 160411.0000 160459.0000 161107.0000 161163.0000 161211.0000 161219.0000 161387.0000 161439.0000 162183.0000 162987.0000 163031.0000 163147.0000 163315.0000 163395.0000 164767.0000 165067.0000 165099.0000 165167.0000 166679.0000 166791.0000 166859.0000 166903.0000 167059.0000 168935.0000 170199.0000 170211.0000 170227.0000 170383.0000 170571.0000 171811.0000 171823.0000 171983.0000 172083.0000 172103.0000 172107.0000 172111.0000 172115.0000 172163.0000 207371.0000 204291.0000 210279.0000 204531.0000 203075.0000 173587.0000 175163.0000 175171.0000 175351.0000 175407.0000 175455.0000 176787.0000 176947.0000 177095.0000 178743.0000 180247.0000 180295.0000 180339.0000 180455.0000 181819.0000 183371.0000 183383.0000 183435.0000 183627.0000 183687.0000 183783.0000 185003.0000 185351.0000 185375.0000 185483.0000 187471.0000 188391.0000 188527.0000 188583.0000 188643.0000 188819.0000 189935.0000 189967.0000 190083.0000 190267.0000 190291.0000 190355.0000 190359.0000 191487.0000 191523.0000 191579.0000 191771.0000 191807.0000 191935.0000 191955.0000 193007.0000 193043.0000 193091.0000 193147.0000 193155.0000 193263.0000 193271.0000 193275.0000 193371.0000 193399.0000 194395.0000 194747.0000 194831.0000 194871.0000 195859.0000 195887.0000 195919.0000 196071.0000 196263.0000 197447.0000 197491.0000 197591.0000 197687.0000 198991.0000 199051.0000 199083.0000 199227.0000 199395.0000 200303.0000 200451.0000 200519.0000 200547.0000 200635.0000 200643.0000 201771.0000 201823.0000 202055.0000 202163.0000 202283.0000 203267.0000 203371.0000 203479.0000 203495.0000 203879.0000 204867.0000 204895.0000 204927.0000 204983.0000 205391.0000 205407.0000 206419.0000 206603.0000 206643.0000 206651.0000 206655.0000 207811.0000 207971.0000 208159.0000 209291.0000 209367.0000 209415.0000 209539.0000 209543.0000 209551.0000 210671.0000 210683.0000 210735.0000 210739.0000 210815.0000 210827.0000 211027.0000 212251.0000 212367.0000 212387.0000 212399.0000 212419.0000 212439.0000 212519.0000 212567.0000 222623.0000 241723.0000 232587.0000 249455.0000 215083.0000 249431.0000 238455.0000 239707.0000 247303.0000 235579.0000 241199.0000 246319.0000 243083.0000 249179.0000 213811.0000 215499.0000 215627.0000 216943.0000 216999.0000 217147.0000 217187.0000 217803.0000 218559.0000 219739.0000 219947.0000 220123.0000 220151.0000 221339.0000 221367.0000 221443.0000 221527.0000 221647.0000 223047.0000 224103.0000 224163.0000 224359.0000 224447.0000 224459.0000 224987.0000 225551.0000 225591.0000 225631.0000 225771.0000 225823.0000 225847.0000 225899.0000 225939.0000 226979.0000 227119.0000 227183.0000 227195.0000 227203.0000 227247.0000 227303.0000 227735.0000 228455.0000 228471.0000 228499.0000 228527.0000 229083.0000 229887.0000 229967.0000 230211.0000 230247.0000 230283.0000 231495.0000 231571.0000 231671.0000 231687.0000 231695.0000 231807.0000 233055.0000 233063.0000 233163.0000 233291.0000 233379.0000 233551.0000 233587.0000 234107.0000 234119.0000 234803.0000 234947.0000 234975.0000 235263.0000 235475.0000 236095.0000 236215.0000 236267.0000 236391.0000 237807.0000 237843.0000 238875.0000 238951.0000 238999.0000 239119.0000 239187.0000 239199.0000 240551.0000 240555.0000 240667.0000 241859.0000 241955.0000 242099.0000 243531.0000 243675.0000 243719.0000 244927.0000 244959.0000 245227.0000 246463.0000 246615.0000 246647.0000 246703.0000 246763.0000 248067.0000 248139.0000 248203.0000 248551.0000 249607.0000 249643.0000 249755.0000 249979.0000 251191.0000 251327.0000 274555.0000 267067.0000 267059.0000 258915.0000 256723.0000 253723.0000 265059.0000 288135.0000 287463.0000 265019.0000 265643.0000 274435.0000 283743.0000 285559.0000 291879.0000 260183.0000 288083.0000 284327.0000 274355.0000 287303.0000 291051.0000 291003.0000 269363.0000 287211.0000 285367.0000 272443.0000 253955.0000 269191.0000 267283.0000 258611.0000 290919.0000 287115.0000 287931.0000 276535.0000 280331.0000 280323.0000 282051.0000 289627.0000 287727.0000 289531.0000 252667.0000 252987.0000 254299.0000 254455.0000 254547.0000 254563.0000 254599.0000 255783.0000 255851.0000 255863.0000 255903.0000 255999.0000 256199.0000 256355.0000 257367.0000 257491.0000 257551.0000 257559.0000 257843.0000 259003.0000 259235.0000 259263.0000 259347.0000 260751.0000 260835.0000 260851.0000 260899.0000 261003.0000 262571.0000 262627.0000 262847.0000 262915.0000 262947.0000 262979.0000 264163.0000 264363.0000 264411.0000 264539.0000 265783.0000 265823.0000 265871.0000 266331.0000 266375.0000 266403.0000 266703.0000 267659.0000 267851.0000 267927.0000 268003.0000 268103.0000 268235.0000 269619.0000 269791.0000 269835.0000 269927.0000 270007.0000 270055.0000 270151.0000 270195.0000 271567.0000 271671.0000 271799.0000 271963.0000 271995.0000 273271.0000 273407.0000 273443.0000 273447.0000 273603.0000 273643.0000 273867.0000 275267.0000 275395.0000 275431.0000 275539.0000 275571.0000 277223.0000 277371.0000 277767.0000 278947.0000 278959.0000 279155.0000 279179.0000 279183.0000 279243.0000 279327.0000 279335.0000 279467.0000 279591.0000 279759.0000 281123.0000 281379.0000 281475.0000 282827.0000 282951.0000 283155.0000 283195.0000 284539.0000 284691.0000 284703.0000 284859.0000 284947.0000 285043.0000 285059.0000 285287.0000 286391.0000 286807.0000 286823.0000 287047.0000 288271.0000 288403.0000 288523.0000 288563.0000 288587.0000 288659.0000 288887.0000 290383.0000 290627.0000 290643.0000 290899.0000 306939.0000 304423.0000 325963.0000 295043.0000 304403.0000 326863.0000 325431.0000 329775.0000 326843.0000 331759.0000 326827.0000 323067.0000 316459.0000 302411.0000 332651.0000 326787.0000 293083.0000 332639.0000 332603.0000 302351.0000 308203.0000 296739.0000 331083.0000 296731.0000 320107.0000 331063.0000 321539.0000 306015.0000 329607.0000 308147.0000 328255.0000 322491.0000 305991.0000 305975.0000 314775.0000 316299.0000 305955.0000 325879.0000 321515.0000 300387.0000 329547.0000 325211.0000 312943.0000 294731.0000 296611.0000 320871.0000 294699.0000 304823.0000 333111.0000 308035.0000 311323.0000 319499.0000 322423.0000 305883.0000 305871.0000 325115.0000 320815.0000 327287.0000 324347.0000 328163.0000 325103.0000 329427.0000 292783.0000 311947.0000 325795.0000 302119.0000 304751.0000 328155.0000 310251.0000 293511.0000 295311.0000 302859.0000 323751.0000 313539.0000 293443.0000 293411.0000 308603.0000 321363.0000 302747.0000 328135.0000 323743.0000 323735.0000 332975.0000 295119.0000 308547.0000 300723.0000 309943.0000 319887.0000 318323.0000 325603.0000 332875.0000 325559.0000 329815.0000 292011.0000 292159.0000 292443.0000 292447.0000 292567.0000 292715.0000 293895.0000 294147.0000 294259.0000 294335.0000 294383.0000 296219.0000 296331.0000 296371.0000 296447.0000 298067.0000 298191.0000 298231.0000 299895.0000 299975.0000 300043.0000 301667.0000 301747.0000 301807.0000 303251.0000 303463.0000 303495.0000 303651.0000 303915.0000 305383.0000 305543.0000 305659.0000 305807.0000 307111.0000 307299.0000 307411.0000 307535.0000 307651.0000 307755.0000 307787.0000 307803.0000 308915.0000 308967.0000 309215.0000 309243.0000 309279.0000 309427.0000 309511.0000 309523.0000 309575.0000 310803.0000 310835.0000 311119.0000 311123.0000 311127.0000 311179.0000 312467.0000 314167.0000 314503.0000 315959.0000 316107.0000 316127.0000 317283.0000 317295.0000 317539.0000 317543.0000 317663.0000 317863.0000 319199.0000 319259.0000 321743.0000 321919.0000 321987.0000 323451.0000 323515.0000 323643.0000 323651.0000 324567.0000 324579.0000 324743.0000 324755.0000 325039.0000 326091.0000 326111.0000 326163.0000 326287.0000 326303.0000 326491.0000 327767.0000 327791.0000 327999.0000 328067.0000 329075.0000 329243.0000 329263.0000 330407.0000 330555.0000 330767.0000 331955.0000 332003.0000 332215.0000 361927.0000 347959.0000 349999.0000 355359.0000 352763.0000 366455.0000 343175.0000 359815.0000 347947.0000 357439.0000 359811.0000 339943.0000 370099.0000 353639.0000 350899.0000 358563.0000 338355.0000 352219.0000 339923.0000 361299.0000 361295.0000 349443.0000 370063.0000 334087.0000 338331.0000 339891.0000 364703.0000 352191.0000 341511.0000 359751.0000 343091.0000 353555.0000 338307.0000 364635.0000 353531.0000 334031.0000 359687.0000 369983.0000 341471.0000 344695.0000 356559.0000 366307.0000 343051.0000 340547.0000 352087.0000 339811.0000 361191.0000 362831.0000 350807.0000 356083.0000 362787.0000 333975.0000 352043.0000 333967.0000 359655.0000 368135.0000 362771.0000 335487.0000 361163.0000 366271.0000 345339.0000 352035.0000 342959.0000 352011.0000 371783.0000 348499.0000 353447.0000 366235.0000 366223.0000 341371.0000 363391.0000 351987.0000 368083.0000 344567.0000 368079.0000 356043.0000 351979.0000 353431.0000 336867.0000 357247.0000 369855.0000 336847.0000 333919.0000 338159.0000 351951.0000 358347.0000 337467.0000 364443.0000 362695.0000 357227.0000 354615.0000 358331.0000 366151.0000 355995.0000 353367.0000 364395.0000 353351.0000 366135.0000 365215.0000 362643.0000 351871.0000 344475.0000 358307.0000 369767.0000 366119.0000 371683.0000 362631.0000 337455.0000 337451.0000 360211.0000 342067.0000 339591.0000 364319.0000 333863.0000 364315.0000 366075.0000 335939.0000 347699.0000 341255.0000 349243.0000 335931.0000 355927.0000 364307.0000 339571.0000 339563.0000 343579.0000 355911.0000 367947.0000 364291.0000 350579.0000 351807.0000 355899.0000 355895.0000 351799.0000 335311.0000 334491.0000 335299.0000 372271.0000 350535.0000 372251.0000 353895.0000 342743.0000 351767.0000 334439.0000 347635.0000 351183.0000 353263.0000 341915.0000 371571.0000 337331.0000 354479.0000 349731.0000 337307.0000 335279.0000 363171.0000 338667.0000 337295.0000 335275.0000 350491.0000 358787.0000 356327.0000 351119.0000 355099.0000 355095.0000 352463.0000 345027.0000 340183.0000 341759.0000 346575.0000 335723.0000 344991.0000 344987.0000 363127.0000 344971.0000 337147.0000 372143.0000 371551.0000 340047.0000 348107.0000 348083.0000 353751.0000 341555.0000 346463.0000 346447.0000 353735.0000 344843.0000 346423.0000 353711.0000 354907.0000 359911.0000 364883.0000 361371.0000 368351.0000 368339.0000 333547.0000 334779.0000 334867.0000 334987.0000 336439.0000 337651.0000 337791.0000 337835.0000 337939.0000 337943.0000 341071.0000 342267.0000 343911.0000 344091.0000 345499.0000 345583.0000 345707.0000 345795.0000 345879.0000 347111.0000 347191.0000 347267.0000 347383.0000 347431.0000 347443.0000 347459.0000 349051.0000 350027.0000 350275.0000 350331.0000 350359.0000 351471.0000 351559.0000 351615.0000 351635.0000 352963.0000 353091.0000 354311.0000 356735.0000 357043.0000 357927.0000 358031.0000 358067.0000 358187.0000 359087.0000 359255.0000 360727.0000 361983.0000 364183.0000 365451.0000 365459.0000 365643.0000 365731.0000 365831.0000 365855.0000 365867.0000 367323.0000 367803.0000 369071.0000 369087.0000 369327.0000 369403.0000 370815.0000 371103.0000 371111.0000 371127.0000 371167.0000 371175.0000 371367.0000 409443.0000 377351.0000 390995.0000 377339.0000 379127.0000 404231.0000 390123.0000 405943.0000 377291.0000 377287.0000 390111.0000 402615.0000 375447.0000 380847.0000 409355.0000 379063.0000 384495.0000 399107.0000 380835.0000 400867.0000 379787.0000 407691.0000 380799.0000 395659.0000 409331.0000 411791.0000 409319.0000 404131.0000 402571.0000 378991.0000 375355.0000 409315.0000 395619.0000 399043.0000 378983.0000 413471.0000 407667.0000 392175.0000 377187.0000 405815.0000 390927.0000 386195.0000 375311.0000 397251.0000 386183.0000 386179.0000 400779.0000 386155.0000 407643.0000 398987.0000 404047.0000 392119.0000 382555.0000 386127.0000 389975.0000 392091.0000 400763.0000 410003.0000 412547.0000 377127.0000 377119.0000 393731.0000 400719.0000 410943.0000 392067.0000 399747.0000 407567.0000 408347.0000 373483.0000 402439.0000 377063.0000 412499.0000 389899.0000 392043.0000 407547.0000 382487.0000 389887.0000 386003.0000 380635.0000 392015.0000 376031.0000 400647.0000 382455.0000 413331.0000 386871.0000 384299.0000 376999.0000 384271.0000 404871.0000 390835.0000 403151.0000 401419.0000 386847.0000 376979.0000 385051.0000 386819.0000 392807.0000 381371.0000 406479.0000 409891.0000 376955.0000 408259.0000 373347.0000 384223.0000 375079.0000 408251.0000 373327.0000 393567.0000 409855.0000 380543.0000 403819.0000 406455.0000 384215.0000 403807.0000 386755.0000 378695.0000 375055.0000 382335.0000 390707.0000 373295.0000 383087.0000 381279.0000 374995.0000 381255.0000 391863.0000 387735.0000 376867.0000 403763.0000 374971.0000 386663.0000 408171.0000 402167.0000 384919.0000 379483.0000 403747.0000 396007.0000 374947.0000 413139.0000 387703.0000 399451.0000 375823.0000 394259.0000 399431.0000 392623.0000 382983.0000 381151.0000 399399.0000 406267.0000 382959.0000 379371.0000 399359.0000 377503.0000 394187.0000 413031.0000 377439.0000 382839.0000 373803.0000 394139.0000 377411.0000 380983.0000 395883.0000 406223.0000 390407.0000 394111.0000 394103.0000 386447.0000 401099.0000 399327.0000 380923.0000 379163.0000 384667.0000 406215.0000 390315.0000 386387.0000 384627.0000 384611.0000 406191.0000 395843.0000 384595.0000 384587.0000 392427.0000 386347.0000 386331.0000 395823.0000 405471.0000 388395.0000 388383.0000 390259.0000 394035.0000 399287.0000 390247.0000 390215.0000 388351.0000 401043.0000 394027.0000 390179.0000 401039.0000 411263.0000 404451.0000 395783.0000 395775.0000 401019.0000 397499.0000 397483.0000 407899.0000 399247.0000 393959.0000 395739.0000 404399.0000 399207.0000 406111.0000 399191.0000 400967.0000 400951.0000 402719.0000 404379.0000 402707.0000 411219.0000 406071.0000 411191.0000 406027.0000 409491.0000 409479.0000 409459.0000 411159.0000 372639.0000 372863.0000 374763.0000 374783.0000 374835.0000 374839.0000 376479.0000 376491.0000 376567.0000 376791.0000 378059.0000 378299.0000 380131.0000 380283.0000 381655.0000 381831.0000 381867.0000 381903.0000 382047.0000 382247.0000 383707.0000 383843.0000 385531.0000 385723.0000 387215.0000 391407.0000 393091.0000 393291.0000 393323.0000 393427.0000 394743.0000 394983.0000 395091.0000 395135.0000 395199.0000 396831.0000 398599.0000 399943.0000 399963.0000 400175.0000 402067.0000 402091.0000 403347.0000 403563.0000 405131.0000 406815.0000 406831.0000 406879.0000 407215.0000 408483.0000 408491.0000 408751.0000 408803.0000 408903.0000 408943.0000 410167.0000 410543.0000 412103.0000 412155.0000 444015.0000 422119.0000 443039.0000 429911.0000 419471.0000 427959.0000 423803.0000 427955.0000 420367.0000 414387.0000 417795.0000 442995.0000 437339.0000 416111.0000 450575.0000 414363.0000 416099.0000 431675.0000 417767.0000 441167.0000 442943.0000 448651.0000 452339.0000 450523.0000 422911.0000 431591.0000 435507.0000 439203.0000 443939.0000 429771.0000 433407.0000 435459.0000 440163.0000 434483.0000 425463.0000 414287.0000 448575.0000 421143.0000 452223.0000 427839.0000 441043.0000 449495.0000 444731.0000 426303.0000 434443.0000 441031.0000 440123.0000 433287.0000 429671.0000 440091.0000 421039.0000 424603.0000 447583.0000 444671.0000 428743.0000 438171.0000 415071.0000 432523.0000 436255.0000 417527.0000 425339.0000 430639.0000 431407.0000 428719.0000 422699.0000 449343.0000 425311.0000 427003.0000 419115.0000 423611.0000 419107.0000 436179.0000 420079