<?xml version="1.0"?>
<VTKFile type="PolyData" version="1.0" byte_order="LittleEndian" header_type="UInt64">
<PolyData>
<Piece NumberOfPoints="573" NumberOfVerts="0" NumberOfLines="0" NumberOfPolys="0">
    <Points>
        <DataArray type="Float32" NumberOfComponents="3" format="ascii">
        14.5470 8.3581 4.3731 13.1719 10.4437 7.0051 13.7558 7.2655 6.4888 14.4847 3.4698 7.3624 7.2633 8.6775 5.8980 13.9600 6.2192 3.8870 14.9626 6.3796 5.1678 13.0359 9.0217 4.1378 14.3234 9.9805 1.3167 14.9062 11.8957 1.9578 14.7841 3.8449 5.8956 14.0867 8.8958 1.6158 13.6232 13.4223 5.9241 14.0960 8.6006 1.8835 12.1278 7.3813 6.4280 11.3099 9.3315 6.2928 11.8602 9.2190 5.6133 14.0006 11.4326 3.1762 13.3563 7.8874 3.6138 13.2832 5.1420 5.1472 13.8996 4.9653 4.4634 12.2641 6.6616 5.7013 14.2698 9.1750 1.2920 14.7752 7.4286 1.4640 13.9640 5.6447 3.2259 14.4473 8.7439 1.5711 14.5264 6.4912 1.5854 14.1475 6.0981 4.5283 14.5697 6.2660 2.5772 11.9795 12.2593 6.8988 14.2920 7.3083 3.8942 14.2598 5.6334 5.3831 14.4750 7.1576 3.9269 14.6349 6.2701 4.4172 12.9201 12.4780 8.3940 12.9969 11.6069 8.3940 14.4213 3.3384 4.0982 14.6324 3.9752 3.6286 13.1049 11.5195 8.3940 13.1309 13.2360 8.3940 13.1188 12.4946 8.3940 14.7011 5.8964 4.4641 13.1830 12.4163 8.3940 13.9385 0.9784 6.6969 13.1064 12.3698 8.3940 13.3600 12.6291 8.3940 13.5657 11.1570 8.3940 13.3426 11.9239 8.3940 13.2866 13.1044 8.3940 13.2798 12.2036 8.3940 13.3989 13.5571 8.3940 13.4016 11.4293 8.3940 13.5142 11.3852 8.3940 13.4295 13.3632 8.3940 13.4544 12.7654 8.3940 13.5289 12.7765 8.3940 13.6000 13.0316 8.3940 13.5331 12.2619 8.3940 13.7524 10.5451 8.3940 13.4172 12.5542 8.3940 13.7319 10.7639 8.3940 13.6370 14.2205 8.3940 13.5027 12.7352 8.3940 13.5948 11.4658 8.3940 13.4618 12.8654 8.3940 13.6390 13.7965 8.3940 13.5106 13.7096 8.3940 13.5739 13.3715 8.3940 13.7374 10.7495 8.3940 13.5361 12.1034 8.3940 13.4384 13.3708 8.3940 13.5834 12.1302 8.3940 13.6854 14.1631 8.3940 13.6439 13.8183 8.3940 13.6033 13.3798 8.3940 13.4973 12.7363 8.3940 13.6497 13.3517 8.3940 14.7992 6.6596 4.8954 13.5339 13.2860 8.3940 13.6193 13.9109 8.3940 14.6615 6.1058 5.4012 13.5309 13.3635 8.3940 13.5582 11.8104 8.3940 13.5576 12.7615 8.3940 14.0808 5.4663 5.0459 14.2330 8.1162 4.7688 14.1177 6.0218 5.2723 13.6812 7.2127 5.6748 14.9529 10.8136 5.5681 13.6886 13.1703 8.3940 13.8179 11.7486 8.3940 13.6416 11.9160 8.3940 14.6390 7.0684 4.4694 13.6969 13.1753 8.3940 13.8589 11.4670 8.3940 13.6343 13.1235 8.3940 14.2950 5.4034 5.4062 13.9894 9.9319 8.3940 14.7109 6.2230 5.1087 14.6753 7.7021 4.1371 13.9068 14.8180 8.3940 13.8040 14.2951 8.3940 13.6794 11.5810 8.3940 13.7145 11.4279 8.3940 13.6305 12.2802 8.3940 13.8072 13.9681 8.3940 13.7732 13.9101 8.3940 13.7261 13.5904 8.3940 14.3068 7.0352 5.1099 14.1940 4.1751 6.1198 13.7464 13.7811 8.3940 13.9148 10.6793 8.3940 14.1020 4.1425 6.1564 14.4083 8.1922 4.5341 13.7872 11.2499 8.3940 13.2597 6.9822 6.4992 13.7459 11.8605 8.3940 14.7203 8.4371 4.3185 14.7592 8.0840 3.7716 13.9054 6.6396 5.7503 13.7258 12.9609 8.3940 14.0515 10.4379 8.3940 13.8012 13.4692 8.3940 13.7529 12.7883 8.3940 13.8462 11.3579 8.3940 13.8051 11.5528 8.3940 13.7470 12.1993 8.3940 14.0903 10.2537 8.3940 14.0775 14.7003 8.3940 13.2301 7.2949 6.0270 13.8177 13.3564 8.3940 14.1036 14.7443 8.3940 13.9680 14.1725 8.3940 13.7932 12.4651 8.3940 13.6555 5.9146 6.4401 14.7739 7.3784 3.5284 13.4898 5.0229 6.6479 14.3904 7.9123 4.3470 13.9657 13.8612 8.3940 13.8830 12.9989 8.3940 13.8150 12.9026 8.3940 14.4200 9.2709 2.3634 13.9659 13.9896 8.3940 13.2061 3.9878 7.2147 13.5177 5.7138 6.1594 13.9450 12.8627 8.3940 13.9519 13.5141 8.3940 14.5876 8.9377 3.6880 13.9658 12.9417 2.7209 13.4216 5.9354 6.7173 13.6936 13.1903 3.1669 13.8471 12.3575 8.3940 13.8984 11.8717 8.3940 13.9374 11.1983 8.3940 13.8529 13.3587 8.3940 13.9760 8.9008 8.3940 13.9360 5.7173 5.7465 14.0226 13.5871 8.3940 13.8857 12.3553 8.3940 14.0532 10.7227 8.3940 13.9630 12.8024 8.3940 13.9941 13.7713 8.3940 14.0043 13.4575 8.3940 14.1925 14.3789 8.3940 13.6480 6.4661 6.0400 13.9412 11.3280 8.3940 13.9933 14.4243 8.3940 14.1092 10.3714 8.3940 14.4289 8.0690 4.1209 13.9091 11.1654 8.3940 14.0040 11.1038 8.3940 13.5778 7.0137 5.6510 14.3111 7.5450 4.6389 14.2220 7.3990 4.6874 13.9029 13.1165 8.3940 13.8817 11.9974 8.3940 13.8781 12.4384 8.3940 13.8944 13.0428 8.3940 14.0131 13.9989 8.3940 14.0050 11.3861 8.3940 14.0368 13.7891 8.3940 14.0645 10.8701 8.3940 13.9812 11.6798 8.3940 14.0264 13.9533 8.3940 12.1573 12.5218 5.0423 13.9542 13.3400 8.3940 14.1753 14.4084 8.3940 14.4051 11.0747 2.4657 14.0268 13.6841 8.3940 14.1917 10.2821 8.3940 13.9570 11.9783 8.3940 14.2023 14.5955 8.3940 14.0036 13.0393 8.3940 14.0055 11.7470 8.3940 9.4305 2.4682 7.5771 14.0706 11.5156 8.3940 14.7496 9.2579 2.9948 14.4731 7.3483 4.9905 13.4801 7.8058 5.2923 9.1787 3.0297 7.5724 12.5451 11.4544 4.2932 14.1658 9.8844 8.3940 14.8702 6.7634 5.0981 13.7053 7.2547 6.6021 11.2658 11.2130 5.8315 13.7769 9.0235 4.4348 14.5217 9.8263 2.4789 11.5647 10.7051 5.7706 11.1753 7.7630 7.5570 14.1732 9.6639 8.3940 14.2913 8.2455 8.3940 4.9624 1.9104 7.9693 13.7946 8.1445 3.2777 10.4844 8.3395 4.8574 12.2398 12.3207 3.8493 14.2698 8.7467 2.8119 11.5675 14.4825 3.4526 11.3037 10.7513 5.8993 13.0458 11.5766 2.1925 14.2233 10.3922 8.3940 13.1474 12.4337 2.0968 14.3325 10.8316 8.3940 11.8875 14.0556 4.7038 14.1257 9.9779 8.3940 12.3561 5.6357 5.4396 14.1725 9.9688 8.3940 8.2193 13.5571 6.4082 14.1481 9.7568 8.3940 14.5556 9.7608 1.9326 14.2002 8.7994 8.3940 7.9146 8.2255 6.6129 14.0592 10.4610 8.3940 12.8930 14.7639 4.3281 14.5937 8.7809 3.5451 12.1429 6.3189 5.6131 14.2399 10.4403 8.3940 14.0063 12.6321 8.3940 14.0805 8.4186 2.8822 13.5307 7.7207 4.0895 14.5944 9.8025 2.1627 14.1942 13.0659 8.3940 9.3252 10.4262 5.9100 14.4523 8.9532 1.9192 14.3342 8.7657 2.1383 14.1905 10.8632 8.3940 13.1295 7.5230 3.6710 10.4082 13.4233 6.6099 7.5322 13.3586 6.7959 6.4394 9.8644 7.7684 10.6555 11.0112 6.3163 13.4244 8.1328 2.2098 12.8837 6.5060 5.1547 14.1971 11.6049 8.3940 13.2195 7.0827 4.0474 11.5943 4.7942 6.2894 13.3804 12.0529 2.0042 14.2006 10.8113 8.3940 13.4731 7.9084 2.2962 10.8810 5.8042 5.7855 11.3750 8.2785 5.9933 14.2647 14.4407 8.3940 14.3837 10.1855 8.3940 14.0668 10.0092 8.3940 14.1926 11.0144 8.3940 14.1932 13.8344 8.3940 14.2871 10.6357 8.3940 14.1082 13.4547 8.3940 13.1167 7.6421 3.8771 12.4836 12.0557 3.4032 14.3200 14.4445 8.3940 12.9427 10.4134 3.4878 14.1021 13.2906 8.3940 14.4265 10.1558 8.3940 14.4146 10.2203 8.3940 14.1254 11.7195 8.3940 11.4473 12.8946 5.6252 13.0376 14.5299 3.9938 14.4756 10.2145 8.3940 14.2820 10.9184 8.3940 14.5531 10.2518 2.7174 14.2702 14.3383 8.3940 14.1464 13.3241 8.3940 14.1146 12.7265 8.3940 14.1556 14.8612 1.9652 11.3106 10.8081 5.9607 11.6392 11.7393 4.6776 14.2495 11.3692 8.3940 14.5130 9.6171 1.8900 14.3417 14.2114 8.3940 13.4290 10.9239 2.1836 13.6750 13.0164 7.8504 14.3715 10.3822 8.3940 13.2555 10.6592 2.5106 12.5652 10.2839 4.2153 13.1861 14.3009 3.6099 13.8672 14.0240 2.5259 14.4114 10.2696 8.3940 10.6920 11.6456 5.1855 14.2745 13.6040 8.3940 14.2142 10.0995 8.3940 14.2224 8.7991 8.3940 12.9046 9.5369 4.5194 11.7223 11.6763 4.1163 12.9309 11.4956 4.3744 12.5312 7.4027 7.0082 14.3699 9.4097 8.3940 14.3278 6.5196 4.5629 12.3998 0.5163 6.9283 14.2313 8.8450 8.3940 14.2622 8.4689 8.3940 12.7782 10.4523 4.9158 14.2290 9.4943 8.3940 14.3587 9.9228 8.3940 14.2185 9.4405 8.3940 13.1074 14.3733 3.8167 13.2195 8.6594 5.1833 14.3728 9.2513 8.3940 14.3897 10.6860 8.3940 14.4824 7.8015 8.3940 14.7881 7.6270 5.6393 14.6373 9.1855 4.6105 14.3791 9.0401 8.3940 14.2640 8.3455 8.3940 14.5833 10.3520 4.5590 14.2751 9.3092 8.3940 13.0008 11.2556 4.5444 14.3912 10.3958 8.3940 14.4508 10.5684 8.3940 14.3691 8.7440 8.3940 14.2983 9.5780 8.3940 14.3667 10.5417 8.3940 13.8687 6.9250 7.1381 14.3779 8.9367 8.3940 11.2203 8.5409 7.1897 9.3325 10.4138 7.3213 12.9371 7.9228 5.9357 14.3333 11.3884 8.3940 10.5021 10.7573 6.6312 14.4321 14.5847 8.3940 14.3971 10.8040 8.3940 12.5416 9.8672 4.5715 12.9434 9.0634 5.0684 14.9032 6.2000 5.2525 12.6627 14.9641 5.0018 14.4991 14.3898 8.3940 14.3389 14.2568 8.3940 14.2363 8.3794 4.6400 14.5329 7.7656 8.3940 14.4124 14.3715 8.3940 13.2325 7.0820 6.6968 13.0830 7.4814 6.2458 14.3744 13.8726 8.3940 12.1439 9.8464 5.4576 14.3441 8.3030 8.3940 14.3096 8.8172 8.3940 14.3808 8.1661 8.3940 10.6427 11.5100 6.8140 14.5300 10.0969 8.3940 14.4003 8.0820 8.3940 14.3065 9.1080 8.3940 13.5954 9.4541 5.1416 14.5192 14.8525 8.3940 14.8267 11.7011 8.3940 14.5221 14.4813 8.3940 9.5213 13.1356 7.5724 14.8517 10.0315 3.8868 14.4174 13.7804 8.3940 14.1760 10.4264 4.7672 14.4471 11.0108 8.3940 11.8095 14.2852 6.1154 14.8169 10.0309 4.6190 14.5312 14.5077 8.3940 14.3950 9.1978 8.3940 14.4983 9.8565 8.3940 14.4420 9.0576 8.3940 14.4398 10.1135 8.3940 14.5315 9.0793 8.3940 14.4542 9.8123 8.3940 14.4138 9.8159 8.3940 14.4467 9.1268 8.3940 12.0400 14.2363 6.5810 13.1374 0.5692 6.8210 14.5625 11.2428 8.3940 14.4713 9.2132 8.3940 14.4882 10.5548 8.3940 14.4347 8.8242 8.3940 14.5297 8.9516 8.3940 14.5715 10.9723 8.3940 14.5548 9.1146 3.2521 14.4395 8.8339 8.3940 14.5502 9.0536 8.3940 14.5516 8.6544 8.3940 14.5324 13.8889 8.3940 14.6334 10.6489 8.3940 14.4326 9.0133 8.3940 14.6972 2.8419 5.9241 13.1572 9.9123 7.3036 14.6340 10.6738 8.3940 14.5226 10.6988 8.3940 12.6299 10.7373 3.6214 13.3053 12.3850 3.9762 14.4520 9.8527 4.4883 12.2862 12.9984 5.4870 14.4855 9.1581 8.3940 14.6030 10.5622 8.3940 14.4727 9.5179 8.3940 14.6346 11.2063 8.3940 14.5477 14.2861 8.3940 14.5895 9.5184 8.3940 12.5432 14.4954 5.8327 13.7740 12.1951 6.9142 12.4085 10.4012 6.3048 13.5010 9.1150 4.3687 14.4823 9.8546 8.3940 14.3799 6.1531 6.9498 14.6023 14.6979 8.3940 14.2764 6.1015 7.5202 14.4747 10.8142 2.0373 12.3102 12.0062 6.6151 11.4484 10.1782 5.7342 14.4691 10.7601 2.0054 14.2368 11.4347 3.2570 13.7805 13.2582 3.5802 14.6589 10.2849 8.3940 14.6003 14.5571 8.3940 14.5090 8.3832 8.3940 14.5993 10.6882 8.3940 14.7262 6.0822 6.8459 11.7236 10.1436 4.7914 14.6416 10.2146 8.3940 14.5937 10.9246 8.3940 14.7157 9.5820 8.3940 14.7224 9.4189 8.3940 14.6148 10.8596 8.3940 14.6466 14.6757 8.3940 14.5649 5.5712 7.0474 14.5136 9.2439 8.3940 14.3361 8.8986 3.1994 14.6530 10.8656 8.3940 12.9848 10.2172 3.3217 11.5297 8.4268 6.9332 14.9988 5.6958 6.6504 9.7021 5.3392 7.5564 14.6293 8.3227 8.3940 12.5620 11.6371 5.9144 13.6996 12.1331 6.9039 14.4571 5.4889 7.0711 14.7003 10.1216 8.3940 14.6438 8.0749 8.3940 14.6463 10.9007 8.3940 12.0907 12.9990 6.0493 14.8061 7.0402 5.6973 14.6852 14.4220 8.3940 14.6366 10.8282 8.3940 12.6575 14.8453 5.9268 14.6554 14.3445 8.3940 14.5218 10.0331 2.8804 14.6778 14.3928 8.3940 14.9415 5.2839 6.7363 14.6228 10.5838 8.3940 13.3371 11.2388 5.2922 14.7391 10.4752 8.3940 14.6508 8.5558 8.3940 11.8779 11.7840 7.6028 13.4875 10.2622 5.1845 14.6710 9.9940 8.3940 14.7729 9.8894 8.3940 14.6665 9.4329 8.3940 14.7141 9.6291 8.3940 14.7281 10.6221 8.3940 14.7425 9.2414 8.3940 14.6171 9.2207 8.3940 14.7249 8.4097 8.3940 14.6347 8.6876 8.3940 13.4231 10.2210 4.4950 14.7176 9.9011 8.3940 14.8190 11.1885 8.3940 14.7304 8.7239 8.3940 13.4409 10.7472 4.4801 14.7661 9.7736 8.3940 14.8026 10.9812 8.3940 14.6596 8.4165 8.3940 14.7594 8.5453 8.3940 14.1950 10.5833 4.0984 14.7631 10.5228 3.4583 12.3685 11.7477 7.1175 13.1463 9.5508 6.1681 14.6828 9.0936 8.3940 14.7075 10.4369 8.3940 14.7561 8.0197 8.3940 14.6345 9.0445 8.3940 14.7115 10.4453 8.3940 14.7270 10.9096 8.3940 14.7146 8.6011 8.3940 14.0677 10.5513 6.5057 13.3889 10.1495 4.2609 13.7752 9.2883 5.3306 13.6186 8.8459 6.0123 14.8623 10.7476 4.7648 13.9124 9.9259 3.6636 13.5525 13.5016 5.4580 14.6690 9.2949 8.3940 14.8279 10.1338 8.3940 14.1561 9.2793 7.5620 14.8172 7.9056 8.3940 10.9913 3.9722 7.9408 14.7104 14.9741 4.1762 14.9755 10.6407 4.0609 13.4737 11.9162 4.9660 14.7546 9.7898 8.3940 14.7526 8.2136 8.3940 13.8221 4.1471 7.9062 14.7860 7.9644 8.3940 14.8169 10.2611 8.3940 14.8512 9.5237 8.3940 14.1732 9.8422 4.6263 13.5301 11.1644 4.3507 14.8544 10.3371 8.3940 14.7102 7.9080 8.3940 14.7849 9.3014 8.3940 14.7014 10.7373 8.3940 14.7557 10.7510 8.3940 14.6860 8.0597 8.3940 12.8897 10.0667 6.8279 12.1550 13.4651 7.2979 13.8386 11.8035 5.3810 14.7469 11.0249 8.3940 14.7787 10.3649 8.3940 14.6530 10.5191 8.3940 14.1892 13.3754 5.8056 14.7498 8.8811 8.3940 14.4542 12.8630 5.5984 12.5275 12.9065 7.9642 14.8180 10.0242 8.3940 13.6277 10.9282 3.5058 13.3367 9.7510 6.3506 13.3162 9.0717 6.4590 14.7860 9.9808 8.3940 14.7002 9.0754 8.3940 13.2039 8.8987 7.2189 13.7752 10.9291 8.0402 14.3190 10.1816 4.0476 13.6641 11.4120 3.7294 13.2736 8.4206 7.4427 14.7003 10.9397 8.3940 13.9471 10.8425 3.6424 14.7365 14.6459 8.3940 14.9189 5.9425 6.6369 14.1225 9.1149 5.4739 11.9939 12.5790 7.5503 13.5866 9.4956 5.2770 14.8560 14.5852 8.3940 14.7053 1.3083 7.3526 13.5932 10.4973 5.5647 12.8477 12.0133 6.5658 13.8612 11.2503 3.9495 14.7498 10.5095 8.3940 13.6927 10.3917 3.2897 14.3257 12.8030 6.8743 13.7906 10.2171 3.6355 14.2902 13.1260 5.3554 14.9087 4.5791 6.3839 14.8711 9.4667 8.3940 12.9195 9.5721 6.9059 13.1564 9.8155 6.9495 13.1535 9.3228 6.2664 14.8694 9.7243 8.3940 14.7829 9.0171 8.3940 13.8437 8.7611 6.2772 13.1180 8.8472 7.4415 14.8569 10.2742 8.3940 14.8468 9.5660 6.6155 14.8373 8.0407 8.3940 
        </DataArray>
    </Points>
    <PointData>
        <DataArray type="Float32" Name="tag" format="ascii">
            83247.0000 84467.0000 81067.0000 81147.0000 89763.0000 92787.0000 136783.0000 160427.0000 171079.0000 159383.0000 147207.0000 174479.0000 158219.0000 165831.0000 163851.0000 151143.0000 158659.0000 160523.0000 166163.0000 162731.0000 154219.0000 171367.0000 171795.0000 160667.0000 170991.0000 177575.0000 156719.0000 184647.0000 157191.0000 76783.0000 227819.0000 208503.0000 216539.0000 208675.0000 63887.0000 58819.0000 224175.0000 221867.0000 73151.0000 76515.0000 92403.0000 223563.0000 87739.0000 213879.0000 66419.0000 96747.0000 84295.0000 98671.0000 98675.0000 92515.0000 100251.0000 97927.0000 94639.0000 105807.0000 109275.0000 124015.0000 130603.0000 104843.0000 94643.0000 117891.0000 98599.0000 84435.0000 123175.0000 96695.0000 98719.0000 80843.0000 109151.0000 117415.0000 95339.0000 124887.0000 96635.0000 130819.0000 99323.0000 102995.0000 121203.0000 98767.0000 124807.0000 363311.0000 112811.0000 80051.0000 359831.0000 95947.0000 121187.0000 112571.0000 369999.0000 397543.0000 388547.0000 394055.0000 341599.0000 138547.0000 147219.0000 136007.0000 372359.0000 109855.0000 141763.0000 103175.0000 372019.0000 65579.0000 368863.0000 349423.0000 86071.0000 104059.0000 125051.0000 124743.0000 140103.0000 95427.0000 122635.0000 130495.0000 382559.0000 387071.0000 112767.0000 73947.0000 383191.0000 396151.0000 103959.0000 390951.0000 143759.0000 390563.0000 385087.0000 393011.0000 119659.0000 100427.0000 111503.0000 134067.0000 139367.0000 144255.0000 118179.0000 96755.0000 104915.0000 402635.0000 112759.0000 86931.0000 96055.0000 129687.0000 397899.0000 388751.0000 401079.0000 404531.0000 142535.0000 151983.0000 149983.0000 459367.0000 134055.0000 406259.0000 413071.0000 155663.0000 140123.0000 456119.0000 413103.0000 409499.0000 408051.0000 148271.0000 151963.0000 114991.0000 120183.0000 175551.0000 418071.0000 143511.0000 137903.0000 93151.0000 147015.0000 116419.0000 157411.0000 109911.0000 396427.0000 127395.0000 90899.0000 104763.0000 397415.0000 120599.0000 136479.0000 404987.0000 396271.0000 405951.0000 133555.0000 139647.0000 140515.0000 129891.0000 134283.0000 149959.0000 122731.0000 118719.0000 127175.0000 124199.0000 406599.0000 140323.0000 110691.0000 416655.0000 121127.0000 104047.0000 140571.0000 86863.0000 158663.0000 147059.0000 461515.0000 149283.0000 456651.0000 404863.0000 458143.0000 462875.0000 480591.0000 212443.0000 411351.0000 454487.0000 489635.0000 486171.0000 456211.0000 493335.0000 491647.0000 178799.0000 176779.0000 472435.0000 462803.0000 462807.0000 474231.0000 461047.0000 466147.0000 487935.0000 487951.0000 175399.0000 467783.0000 150867.0000 466163.0000 200639.0000 470991.0000 177063.0000 471051.0000 201871.0000 456923.0000 170299.0000 466379.0000 172119.0000 488151.0000 463319.0000 464839.0000 93959.0000 152631.0000 464651.0000 466311.0000 460147.0000 158603.0000 468187.0000 464943.0000 464803.0000 145315.0000 467739.0000 468283.0000 475931.0000 491815.0000 489983.0000 462611.0000 468011.0000 152667.0000 469675.0000 469703.0000 471219.0000 132211.0000 469619.0000 471227.0000 472971.0000 138895.0000 90331.0000 185335.0000 152223.0000 136935.0000 104943.0000 146211.0000 471463.0000 474667.0000 118115.0000 472931.0000 156531.0000 98615.0000 99611.0000 151079.0000 484591.0000 492115.0000 112751.0000 118079.0000 439999.0000 137727.0000 146419.0000 156699.0000 474495.0000 486695.0000 486387.0000 152595.0000 477915.0000 138007.0000 477959.0000 241731.0000 136431.0000 477903.0000 490535.0000 490411.0000 476223.0000 117967.0000 494015.0000 152003.0000 206479.0000 225831.0000 493219.0000 489719.0000 491531.0000 499907.0000 265939.0000 460427.0000 505235.0000 217195.0000 191475.0000 498711.0000 242271.0000 245175.0000 204775.0000 489783.0000 494975.0000 245259.0000 196243.0000 163103.0000 451055.0000 491699.0000 233475.0000 168619.0000 496863.0000 180279.0000 491615.0000 165171.0000 125655.0000 224419.0000 207735.0000 177091.0000 498739.0000 218479.0000 493475.0000 497039.0000 498795.0000 158527.0000 500151.0000 114039.0000 164759.0000 499207.0000 495675.0000 421971.0000 495443.0000 128795.0000 147383.0000 490551.0000 168611.0000 123159.0000 497343.0000 503003.0000 153963.0000 501563.0000 165207.0000 172219.0000 199087.0000 318695.0000 123215.0000 178635.0000 180447.0000 493679.0000 119419.0000 458351.0000 124179.0000 325871.0000 490243.0000 153735.0000 507235.0000 152863.0000 416703.0000 505995.0000 146107.0000 210983.0000 251211.0000 234919.0000 245351.0000 266215.0000 228535.0000 218611.0000 211107.0000 493191.0000 510019.0000 178583.0000 245311.0000 194599.0000 257799.0000 248247.0000 162935.0000 511787.0000 245267.0000 252787.0000 241827.0000 154707.0000 252995.0000 272179.0000 503875.0000 337091.0000 248191.0000 132555.0000 513459.0000 529631.0000 497143.0000 566931.0000 218635.0000 199195.0000 285039.0000 176775.0000 143375.0000 298119.0000 561527.0000 489823.0000 563359.0000 539203.0000 217019.0000 513779.0000 142727.0000 507075.0000 434459.0000 567099.0000 537879.0000 436267.0000 495363.0000 427015.0000 109191.0000 142091.0000 191703.0000 160415.0000 518763.0000 528675.0000 118779.0000 145431.0000 96019.0000 69487.0000 142631.0000 120551.0000 528595.0000 290971.0000 542751.0000 160095.0000 534555.0000 565919.0000 527103.0000 570563.0000 187111.0000 557759.0000 492255.0000 531899.0000 120331.0000 208055.0000 208099.0000 558463.0000 537779.0000 135987.0000 180319.0000 569003.0000 149003.0000 482987.0000 141643.0000 526867.0000 199099.0000 575627.0000 148199.0000 255811.0000 571835.0000 580007.0000 283359.0000 266099.0000 271931.0000 303447.0000 262383.0000 273919.0000 292615.0000 262823.0000 284883.0000 578423.0000 264343.0000 187079.0000 298075.0000 580015.0000 267667.0000 242047.0000 264395.0000 246747.0000 361591.0000 570195.0000 585059.0000 592575.0000 256095.0000 214211.0000 231487.0000 255927.0000 233387.0000 214175.0000 241883.0000 565479.0000 575111.0000 586943.0000 592567.0000 557891.0000 583279.0000 538971.0000 322379.0000 134991.0000 588667.0000 173703.0000 316671.0000 537443.0000 590823.0000 565211.0000 300283.0000 209483.0000 321215.0000 175251.0000 113483.0000 96555.0000 590811.0000 576787.0000 157471.0000 209519.0000 312359.0000 207959.0000 148995.0000 191415.0000 594955.0000 568855.0000 568771.0000 180287.0000 234879.0000 203611.0000 552399.0000 304155.0000 562019.0000 580475.0000 101199.0000 565527.0000 593127.0000 594855.0000 91771.0000 284755.0000 594931.0000 587447.0000 589499.0000 565535.0000 599263.0000 155491.0000 580571.0000 153851.0000 523211.0000 595395.0000 569279.0000 593211.0000 135999.0000 504803.0000 577107.0000 583883.0000 577131.0000 129071.0000 580527.0000 570863.0000 582375.0000 533435.0000 531735.0000 63911.0000 593271.0000 587195.0000 592915.0000 103955.0000 294679.0000 593335.0000 601359.0000 128979.0000 588799.0000 242227.0000 
         </DataArray>
    </PointData>
</Piece>
</PolyData>
</VTKFile>