<?xml version="1.0"?>
<VTKFile type="PolyData" version="1.0" byte_order="LittleEndian" header_type="UInt64">
<PolyData>
<Piece NumberOfPoints="232" NumberOfVerts="0" NumberOfLines="0" NumberOfPolys="0">
    <Points>
        <DataArray type="Float32" NumberOfComponents="3" format="ascii">
        14.3035 8.8117 4.1118 14.6481 8.6572 2.0077 14.5492 7.6928 4.5907 14.4287 10.3687 2.8363 14.3713 7.7070 4.9149 14.7886 9.8251 2.4715 14.7419 10.9294 2.4174 14.3583 10.6208 4.2184 14.8963 8.1196 7.4185 14.5111 4.7645 7.2217 14.8415 7.2445 4.5485 14.7153 10.8891 2.4734 14.6559 7.5249 3.6861 7.4847 8.6692 7.4974 12.5155 3.4393 7.3484 14.7132 9.2197 2.5671 13.3396 5.0041 4.9526 14.7981 6.6073 4.7229 14.6867 5.5601 5.5634 12.4112 8.3987 5.1949 13.5003 10.6362 2.5014 13.2244 8.3711 4.0723 14.0073 10.3392 1.9645 13.3296 10.6039 4.0679 14.5840 4.1248 6.1576 13.1457 7.3220 4.2825 13.9998 11.7323 3.9158 13.2315 7.0662 4.3308 14.1943 11.1337 2.3998 14.5422 10.2340 1.6133 14.6019 11.5122 1.2655 11.3135 7.3656 6.3901 10.7110 8.8893 6.3808 11.7718 9.2567 6.0211 14.0305 9.1964 2.1394 13.0028 10.4551 4.6463 14.1937 8.6562 2.1800 14.1629 8.9977 2.0796 14.2630 7.4444 2.8662 12.6203 6.9523 5.0692 14.3256 7.3432 3.0214 12.8559 4.8844 6.1658 13.3883 4.2794 6.1131 14.9586 4.1484 5.1112 11.8896 6.9023 6.1062 13.2355 7.5190 4.0742 13.7066 8.9530 2.8380 14.3058 8.9515 2.0111 13.9475 6.3694 4.0390 13.9785 5.6050 4.3756 14.6295 10.2434 1.0915 13.9788 8.8264 2.5220 14.5041 8.7893 1.8026 13.3835 4.4707 5.5801 14.0319 8.4384 3.3565 11.9926 3.4091 7.2028 14.7708 8.0930 2.4438 13.5160 7.1016 4.2236 14.3283 8.9589 3.0108 13.9347 4.6666 4.4761 14.3284 5.4334 3.5284 14.3723 7.8107 3.7246 13.6498 5.3625 5.7895 14.3125 8.9922 3.0111 14.6284 6.2957 2.1594 14.6428 5.4132 3.2570 13.8028 6.9331 3.9458 14.4671 5.1840 3.7349 14.0009 4.6315 4.5214 14.5314 12.0081 2.6931 13.6460 6.3945 5.3744 14.7503 7.3614 3.4354 13.8825 5.6048 6.0990 14.8405 7.4056 3.4748 13.9278 6.2176 5.3317 14.1457 5.4127 5.6570 13.9262 12.4624 8.3940 13.9802 11.8202 8.3940 14.7345 7.6581 3.3436 14.6505 8.4023 2.5400 14.0476 2.3059 6.0660 14.4654 7.8287 4.7323 14.4068 5.8503 5.1877 14.6565 1.9435 6.2786 14.6734 7.2106 4.8597 14.2910 7.1527 5.0825 14.6453 8.2816 4.0179 14.2182 2.8343 5.7352 14.8492 3.7474 4.3994 14.7881 6.0546 4.9307 14.0731 11.7933 8.3940 14.5017 8.3100 4.1558 14.1250 13.0801 8.3940 14.1246 12.5235 8.3940 14.3946 8.6783 3.0901 14.6044 8.8506 2.8000 14.2657 7.4079 5.1640 14.3942 5.0879 5.7299 14.1860 12.4959 8.3940 13.3204 1.7927 7.0431 14.3182 6.7935 5.2588 14.5082 6.4229 4.6532 14.9333 12.0212 2.2778 11.2696 8.2624 4.9944 14.1126 12.3710 8.3940 14.6393 4.2527 5.2539 14.0184 1.2709 7.0768 14.3639 12.5608 8.3940 14.5714 7.2773 2.7079 14.5129 7.9256 4.0409 14.4554 11.6270 8.3940 14.4654 10.9646 2.3322 14.6414 7.8585 3.9127 14.3379 12.0719 8.3940 12.3163 10.3751 7.6606 14.2793 12.9404 8.3940 14.8161 7.1309 3.0475 14.2837 12.2728 8.3940 14.6851 5.3875 4.1758 14.3493 13.2266 8.3940 14.3537 11.7548 8.3940 14.4426 11.7734 8.3940 14.4115 13.1437 8.3940 14.4605 12.7459 8.3940 14.5349 12.7547 8.3940 14.5888 12.8449 8.3940 14.5311 12.3903 8.3940 14.5561 11.1505 8.3940 14.4231 12.5289 8.3940 14.5750 11.3132 8.3940 14.4990 13.7014 8.3940 14.5056 12.6540 8.3940 14.5271 11.8441 8.3940 14.4652 12.7898 8.3940 14.5696 13.4137 8.3940 14.4582 13.3710 8.3940 14.5567 13.1555 8.3940 14.5698 11.3148 8.3940 14.5387 12.1889 8.3940 14.4224 13.1608 8.3940 14.7761 6.9599 4.4864 14.5837 12.2387 8.3940 14.5475 13.6440 8.3940 14.5867 13.4669 8.3940 13.3302 13.1637 3.1789 14.5636 13.0793 8.3940 14.4980 12.6313 8.3940 14.8423 7.0906 5.9485 14.6094 13.0495 8.3940 14.3301 7.0200 6.4618 14.5005 13.0062 8.3940 10.2241 12.1714 8.2095 14.5219 13.4660 8.3940 14.1692 6.9401 6.5271 14.5159 13.1580 8.3940 14.3591 12.6849 3.1859 14.5409 12.0265 8.3940 14.5636 12.7420 8.3940 14.5996 6.6479 7.3011 14.7946 8.2850 6.1384 14.3522 8.2359 7.2000 14.6733 7.0528 7.3613 14.2471 7.8887 7.2724 14.9576 6.5856 7.1150 14.8066 6.9409 6.1201 14.5900 6.5147 6.6004 14.6888 6.6252 6.4933 14.9158 9.6463 5.4826 13.2701 11.6354 6.1679 14.9582 8.7873 6.2863 14.5222 2.1395 7.4305 14.6671 12.9360 8.3940 14.7930 11.9969 8.3940 14.6242 12.1330 8.3940 14.8350 6.0237 6.2867 14.2847 7.2960 6.7840 13.8310 11.5529 6.0060 14.6744 12.9369 8.3940 14.7992 11.8249 8.3940 14.6267 12.9573 8.3940 14.2825 6.2505 6.5214 14.8615 8.6084 5.9437 14.7202 10.6237 8.3940 14.2597 6.7711 6.4884 14.3700 7.6582 6.8616 14.9969 9.9552 4.7843 14.7001 14.1990 8.3940 14.7174 14.3987 8.3940 14.6753 13.7918 8.3940 14.6464 11.8591 8.3940 14.6572 11.7798 8.3940 14.6362 12.3135 8.3940 14.8202 8.2195 6.2755 14.6861 13.4782 8.3940 14.6841 13.4825 8.3940 14.6754 13.2566 8.3940 14.7612 7.4304 7.3048 14.7541 6.2145 7.3857 14.6928 13.4393 8.3940 14.7336 11.2642 8.3940 14.6613 6.2065 7.3856 14.8719 7.3343 7.1098 14.5257 8.1988 7.1348 14.8139 6.9488 6.1726 14.7234 11.6186 8.3940 14.1773 7.7016 7.3303 14.8070 8.7067 6.5545 14.7202 12.1119 8.3940 14.8823 7.7703 6.1533 14.7450 6.6870 6.0892 14.5908 8.3006 6.9998 14.7492 9.4161 5.8283 14.7140 7.8133 7.0973 14.4105 7.4279 7.3177 14.7998 9.0253 6.3080 14.7274 12.8647 8.3940 14.7993 11.1112 8.3940 14.7465 13.1243 8.3940 14.7502 12.6544 8.3940 14.7668 11.7642 8.3940 14.7575 11.8776 8.3940 14.7507 12.2694 8.3940 14.8257 10.9404 8.3940 14.8256 14.0274 8.3940 13.9466 8.0975 7.4460 14.7862 13.0835 8.3940 14.8523 14.3124 8.3940 14.8400 14.0586 8.3940 14.8138 13.6274 8.3940 14.7994 12.4549 8.3940 14.1040 7.2909 7.4846 14.8488 7.2673 7.2244 
        </DataArray>
    </Points>
    <PointData>
        <DataArray type="Float32" Name="tag" format="ascii">
            29691.0000 98559.0000 79995.0000 87707.0000 83247.0000 82583.0000 89335.0000 84467.0000 81067.0000 81147.0000 92939.0000 87995.0000 86623.0000 89763.0000 88435.0000 89155.0000 92787.0000 84695.0000 136783.0000 160427.0000 160103.0000 171079.0000 167843.0000 159383.0000 147207.0000 174479.0000 158219.0000 165831.0000 159167.0000 171279.0000 158299.0000 163851.0000 151143.0000 158659.0000 155991.0000 160523.0000 153147.0000 152283.0000 151567.0000 166163.0000 154447.0000 162731.0000 154219.0000 149179.0000 171367.0000 171795.0000 171507.0000 165731.0000 162183.0000 160667.0000 169935.0000 167647.0000 169595.0000 170991.0000 177835.0000 176091.0000 176035.0000 177575.0000 174579.0000 156719.0000 156559.0000 183111.0000 184647.0000 176099.0000 155419.0000 154407.0000 176551.0000 151171.0000 157191.0000 76783.0000 227819.0000 213079.0000 208503.0000 211987.0000 216539.0000 208675.0000 63887.0000 58819.0000 211439.0000 217631.0000 224175.0000 224987.0000 227735.0000 221339.0000 217803.0000 234119.0000 214835.0000 221867.0000 217011.0000 215083.0000 73151.0000 231267.0000 76515.0000 92403.0000 228111.0000 220823.0000 235475.0000 223563.0000 87739.0000 213879.0000 234107.0000 222623.0000 91603.0000 143071.0000 66419.0000 265279.0000 261027.0000 96747.0000 253827.0000 286135.0000 84295.0000 276663.0000 276275.0000 98671.0000 87139.0000 98675.0000 251063.0000 92515.0000 258391.0000 100251.0000 97927.0000 94639.0000 105807.0000 109275.0000 124015.0000 130603.0000 104843.0000 94643.0000 117891.0000 98599.0000 84435.0000 123175.0000 96695.0000 98719.0000 80843.0000 109151.0000 117415.0000 95339.0000 124887.0000 96635.0000 287807.0000 130819.0000 99323.0000 102995.0000 274747.0000 121203.0000 98767.0000 241723.0000 124807.0000 363311.0000 112811.0000 149479.0000 80051.0000 359831.0000 95947.0000 285439.0000 121187.0000 112571.0000 369999.0000 368183.0000 397543.0000 388547.0000 394055.0000 384919.0000 353711.0000 381255.0000 381151.0000 341599.0000 220639.0000 390707.0000 261403.0000 138547.0000 147219.0000 136007.0000 373803.0000 372359.0000 287691.0000 109855.0000 141763.0000 103175.0000 372019.0000 371859.0000 65579.0000 368863.0000 349423.0000 364591.0000 86071.0000 59667.0000 104059.0000 125051.0000 124743.0000 140103.0000 372563.0000 95427.0000 122635.0000 130495.0000 382559.0000 387071.0000 112767.0000 73947.0000 383191.0000 385051.0000 396151.0000 365215.0000 103959.0000 390951.0000 386183.0000 143759.0000 368827.0000 372143.0000 390563.0000 392303.0000 385087.0000 393011.0000 390927.0000 119659.0000 100427.0000 111503.0000 134067.0000 139367.0000 144255.0000 118179.0000 96755.0000 104915.0000 402635.0000 112759.0000 68047.0000 86931.0000 96055.0000 129687.0000 397899.0000 388751.0000 
         </DataArray>
    </PointData>
</Piece>
</PolyData>
</VTKFile>