<?xml version="1.0"?>
<VTKFile type="PolyData" version="1.0" byte_order="LittleEndian" header_type="UInt64">
<PolyData>
<Piece NumberOfPoints="2318" NumberOfVerts="0" NumberOfLines="0" NumberOfPolys="0">
    <Points>
        <DataArray type="Float32" NumberOfComponents="3" format="ascii">
        15.6595 6.7892 3.5473 18.1112 10.4736 3.0959 18.6965 10.7971 2.5106 18.1186 10.4211 3.0885 18.7193 10.6403 2.4878 18.3684 10.7533 2.8387 16.5546 8.0837 2.3312 18.4660 10.3841 2.7411 16.2511 8.1852 2.2088 17.2261 8.9366 3.2754 18.5579 10.6691 2.6492 18.4644 10.7172 2.7427 16.4577 8.7761 1.4782 18.3071 11.3775 2.9000 16.6818 8.3484 3.3162 18.7730 10.6759 2.4341 18.7390 10.6253 2.4681 16.7521 8.5777 2.6550 18.7672 10.6017 2.4399 16.6813 8.9744 1.0128 18.7776 10.7221 2.4295 16.9891 9.0284 1.2678 16.4079 7.9746 2.2300 16.1999 7.0726 3.5416 17.0217 7.9202 3.0533 18.5893 10.7750 2.6179 15.7450 8.1409 3.0886 18.5958 10.4958 2.6113 18.6525 10.7594 2.5546 15.3644 9.6551 1.6024 16.9241 8.0019 1.6301 18.6690 10.4161 2.5381 17.3253 5.9129 3.3384 16.8338 8.7560 0.9622 16.9800 4.4733 5.7346 18.5405 10.5293 2.6666 18.4905 10.3772 2.7166 18.7401 10.6705 2.4670 17.1254 5.8777 3.8001 18.6535 10.5063 2.5537 18.5227 10.3075 2.6844 18.8888 10.5255 2.3183 15.3955 7.9166 3.9360 18.8129 10.6923 2.3434 15.8274 9.6860 1.7019 18.5702 10.2295 2.6369 16.3905 6.9873 3.7338 18.0575 10.2371 3.1496 18.0129 10.5232 3.1942 16.4475 6.5832 4.0238 18.4817 10.3841 2.7254 18.7377 10.5962 2.4694 15.3970 7.7412 4.7663 18.8820 10.5759 2.3607 18.6772 10.5890 2.5299 16.0249 9.7402 1.9355 17.7461 10.1109 3.4610 15.4341 8.7063 3.5797 15.1495 9.7923 2.3997 17.4870 10.2001 3.7201 18.2057 10.0000 1.9597 15.4403 10.0000 2.9251 15.5608 11.4073 4.8428 17.8632 10.3759 3.3439 15.2124 9.3957 4.1430 18.8462 10.4991 2.3609 15.7478 9.7172 2.7180 17.5725 10.2114 3.6346 17.8949 10.3197 3.3122 15.4322 10.7560 4.5891 17.9370 10.5450 3.2701 18.7826 10.5285 2.4245 17.3538 10.3117 3.8533 17.7068 10.1938 3.5003 18.8078 10.7681 2.2926 18.9057 10.5008 2.3015 17.4110 10.2708 3.7961 18.0151 10.4643 3.1920 17.2308 10.2402 3.9763 18.0357 10.3699 3.1714 15.3416 9.4952 4.5856 17.4381 10.1498 3.7690 17.6636 10.4190 3.5435 17.7196 10.4227 3.4875 15.0966 10.1757 5.5887 18.3366 10.3664 2.8705 18.6522 10.5207 2.5549 18.4147 10.4604 2.7924 18.6688 10.5379 2.5383 18.0525 10.5315 3.1546 15.9394 10.0000 2.6477 17.4120 10.0000 1.4528 18.8418 10.5850 2.3346 18.5879 10.7109 2.6192 15.5660 10.0000 3.5394 18.5106 10.2477 2.6966 17.7872 10.4186 3.4199 18.8040 10.3986 2.4032 15.8526 11.2683 5.0094 17.7074 10.4788 3.4997 18.2195 10.3687 2.9877 18.6032 10.7358 2.6039 15.5297 10.0000 3.6852 15.4379 10.0000 2.7290 18.2092 11.0732 2.9980 15.5718 10.9340 1.4467 16.0697 10.0000 3.6275 18.6089 10.6756 2.5982 18.7485 10.2947 2.4586 15.7062 9.4053 2.6506 18.6042 10.5415 2.6029 18.8553 10.4695 2.3518 17.4385 10.0000 1.1011 18.0970 11.2918 3.1102 18.8184 10.6708 2.3033 18.4880 10.6405 2.7191 18.4799 10.7339 2.7272 18.6331 10.3897 2.5740 18.4998 10.6640 2.7073 18.3167 10.3952 2.8904 18.5234 10.7295 2.6837 18.2559 11.1833 2.9512 18.7947 10.7874 2.2709 18.1551 11.2785 3.0520 16.8250 9.7354 1.3505 15.2668 9.8206 2.7455 18.7403 10.5877 2.4668 18.8132 10.7699 1.7997 15.4953 9.6615 3.6689 15.4607 10.0000 2.6583 18.8191 10.4379 2.3880 18.8051 10.7740 2.3098 18.6713 10.6338 2.5358 18.5041 10.2346 2.7030 15.0353 9.6153 1.8873 18.6183 10.4638 2.5888 18.2768 11.2343 2.9303 18.7940 10.7764 2.0851 18.8540 10.4281 2.3531 16.6964 9.4747 1.4971 15.2929 10.1088 1.8480 16.1554 9.4642 1.2910 18.6114 10.5425 2.5957 18.8753 10.3814 2.3318 18.2958 10.8062 2.9113 18.7425 10.4351 2.4646 18.2063 10.9850 3.0008 17.4327 10.0000 0.9293 18.2061 10.0000 2.1467 18.3001 10.4414 2.9070 18.1679 10.2574 3.0392 15.4784 9.1453 2.4426 18.8171 10.6620 2.2373 15.7264 8.7138 1.5661 18.8246 10.6636 2.2609 18.3129 10.6959 2.8942 18.6732 10.3685 2.5339 18.5450 10.7190 2.6621 15.6749 8.3044 1.4176 18.8264 10.2297 2.3807 18.3657 10.7657 2.8414 15.8245 8.4534 3.1301 18.7663 10.4857 2.4408 18.7993 10.7543 2.0854 18.2165 10.7638 2.9906 18.1405 10.9858 3.0666 18.8132 10.4501 2.3939 18.2011 10.0000 2.4516 18.5910 10.6370 2.6161 17.8491 10.8660 3.3580 18.1961 11.1134 3.0110 18.1695 10.6538 3.0376 18.8082 10.7848 2.1735 18.0071 11.3746 3.2000 18.5303 10.5910 2.6768 18.1972 10.0000 2.3897 18.1148 11.2999 3.0923 15.8620 7.4451 1.7958 15.9991 6.9752 1.4492 18.2030 10.0000 2.3370 18.4727 10.7059 2.7344 15.8402 7.0471 2.8854 15.5914 6.8199 3.4133 15.7242 7.4309 1.8393 16.1545 5.6251 4.7429 18.0385 10.7251 3.1686 15.9569 6.9381 1.6697 18.7118 10.6661 2.4953 15.4224 7.0102 1.6561 17.1446 10.0000 1.6788 18.5212 10.7624 2.6859 18.3871 10.7576 2.8200 16.1023 6.4648 2.7080 15.9081 5.6707 4.0907 15.9636 6.8874 1.7012 15.6378 7.4546 1.2957 18.1452 11.1637 3.0619 18.7986 10.3958 2.4085 18.2823 10.6156 2.9248 16.8848 5.1996 3.4649 17.0256 5.2958 1.8175 15.8113 5.9613 3.5814 18.1044 10.0653 3.1027 16.2747 6.2460 1.9974 15.5322 5.4882 3.7827 18.2804 10.4728 2.9267 18.7496 10.5281 2.4575 18.7544 10.4201 2.4527 17.7122 11.3246 3.4949 16.9055 5.3628 2.1780 16.1488 0.2911 6.7367 18.8085 10.4344 2.3986 15.0546 4.1581 5.2111 17.0299 5.8947 2.2582 17.9487 10.7023 3.2584 18.2917 10.6119 2.9154 17.9212 10.7297 3.2859 18.6943 10.7667 2.5128 18.2124 11.3173 2.9947 17.9990 10.0000 1.7650 16.6006 4.0532 4.3605 16.4919 7.8475 1.6347 17.6966 11.3325 3.5105 17.5830 10.0000 1.0058 18.1667 10.9903 3.0404 18.4711 10.6811 2.7360 17.8962 10.9327 3.3110 16.4357 6.4091 4.1412 18.4424 10.2310 2.7647 17.0691 2.9357 5.1515 18.7824 10.4573 2.4247 17.9715 10.6047 3.2356 17.7145 10.8546 3.4926 18.0900 11.0371 3.1171 17.9906 11.2717 3.2165 16.6917 9.0772 1.7055 18.1396 11.0823 3.0675 17.0684 9.4596 1.9065 18.6812 10.5274 2.5260 16.7696 8.9787 2.2524 17.2681 10.2983 3.9390 18.7383 10.7608 2.4688 16.5738 8.1175 3.5272 16.5211 9.0688 2.4638 17.8108 10.3121 3.3963 17.0621 9.0838 1.6934 17.7177 10.3868 3.4894 18.0305 10.5301 3.1766 17.1318 8.1940 3.4685 18.2015 10.0000 1.9172 17.6665 11.1184 3.5406 17.6005 10.0000 0.7751 16.5947 8.3346 3.3543 17.9967 10.0000 1.7497 17.1200 9.0859 2.3150 17.9448 11.3794 3.2623 17.8150 10.9821 3.3921 17.2789 10.9707 3.9282 18.0623 10.1189 3.1448 18.1933 11.3400 3.0138 18.3922 10.2906 2.8149 16.8991 8.5455 2.1483 17.1546 8.1724 3.1610 16.7804 7.9380 3.9045 16.5913 7.8501 3.9704 17.1256 10.2575 4.0815 16.9440 7.9170 3.7500 16.1897 7.5844 4.6815 17.9383 10.5128 3.2688 17.4126 10.0000 1.4261 16.1471 7.3484 4.4277 18.0882 11.3574 3.1189 18.5756 7.2139 4.2905 18.8200 8.7044 4.3168 17.5740 11.0037 3.6331 17.9267 8.5950 1.7980 17.9846 9.2048 1.5888 17.9982 11.3642 3.2089 18.5588 8.4508 4.7715 18.2652 9.1615 2.7620 17.3294 11.4092 3.8777 19.1519 7.6121 4.7084 18.7940 6.8281 4.8815 20.9457 4.3294 6.8793 17.8879 10.8522 3.3192 17.5551 7.9279 2.7716 18.3215 10.3379 3.3274 18.0104 11.0309 3.1967 17.7157 11.0490 3.4914 16.8790 7.3832 3.3525 17.4167 10.9902 3.7904 18.0531 11.2927 3.1540 18.3165 11.3781 2.8906 18.2987 9.3740 2.4545 18.8267 10.5514 2.3804 17.5882 11.1696 3.6189 17.6324 10.8514 3.5747 18.1554 11.0553 3.0517 16.8560 8.0075 3.3776 17.9606 10.7200 3.2465 17.1229 8.3953 3.3264 15.9906 6.5030 5.4609 17.9077 10.3599 3.2994 17.8871 10.0000 1.0453 17.4277 10.5519 3.7794 17.0814 7.8682 3.7598 17.4488 8.2346 1.7042 16.5694 8.0565 3.4300 15.8472 6.8342 5.4124 18.1963 11.2739 3.0108 17.2257 11.1628 3.9814 17.7323 10.7027 3.4748 17.5306 11.6674 8.3940 16.4184 7.5117 4.2523 16.5461 8.0195 3.5050 18.0048 11.2278 3.2023 16.2638 13.6786 8.3940 18.2051 11.2214 3.0020 18.0538 11.2615 3.1533 16.4477 8.2180 3.2923 16.8408 7.5662 2.8878 18.3643 10.5576 2.8428 18.1088 11.0479 3.0983 17.3044 10.6584 3.9027 18.3092 11.3393 2.8979 16.9889 7.9972 2.1379 17.5891 11.9163 8.3940 15.9388 6.5710 5.3608 16.3033 7.4107 3.8384 17.6933 10.8610 3.5138 16.0308 7.1513 4.8036 17.3899 10.8567 3.8172 16.2190 10.0000 2.4484 17.8588 10.6715 3.3483 16.8661 6.4943 5.1580 17.9141 11.1963 3.2930 18.2055 10.0000 2.0770 16.6131 7.2861 4.0569 16.6129 7.6374 3.0105 16.6399 7.7444 3.1660 17.9323 11.0839 3.2748 18.0893 10.9632 3.1178 18.2891 10.6695 2.9180 17.4342 10.9831 3.7729 17.7715 10.0000 0.6940 18.2979 10.9608 2.9092 16.6440 9.1337 2.7635 16.1195 8.1086 4.0869 17.8841 10.7951 3.3230 17.0064 7.3896 3.2019 16.7538 7.5161 2.5316 16.9175 7.6715 2.7857 17.8833 11.0915 3.3238 17.9618 11.1608 3.2453 18.1150 10.7738 3.0921 17.5042 10.5528 3.7029 17.6844 11.3954 3.5227 16.7438 7.4292 2.4923 18.2162 10.8423 2.9909 17.4943 9.2907 1.7381 18.4397 10.6622 2.7674 17.9640 11.0665 3.2431 18.9466 10.4856 2.2519 17.4397 13.3642 8.3940 17.6843 13.4807 8.3940 17.6322 13.4675 8.3940 18.0539 11.1719 3.1532 17.5830 10.0000 1.0433 18.1352 11.0750 3.0719 15.9078 13.6716 8.3940 17.7724 9.0090 1.9730 17.9074 11.1175 3.2997 17.9769 11.3126 3.2302 17.8344 10.9131 3.3727 17.7301 7.7801 3.4371 17.2374 6.8733 4.0475 17.8565 11.0776 3.3506 17.6766 8.4398 3.1905 16.6718 6.6480 3.7141 17.1752 11.5690 8.3940 18.1832 10.0000 2.0478 17.7284 10.8416 3.4787 18.2372 11.0859 2.9699 18.0512 11.2433 3.1559 17.6271 7.3104 4.1113 17.8395 11.1789 3.3676 17.1318 6.8424 3.6175 18.6120 10.7890 2.5951 17.0474 6.9777 3.0932 17.7356 10.0000 0.7655 17.0760 3.4911 6.2792 17.5632 11.0164 3.6439 17.3689 10.5827 3.8382 17.7988 11.3437 3.4083 17.8711 11.0374 3.3360 18.0914 11.2542 3.1157 17.9803 10.9504 3.2268 17.9228 11.3793 3.2843 17.1120 6.8431 3.4491 17.7489 12.8208 8.3940 17.8112 10.9755 3.3959 17.5499 10.7721 3.6572 18.2756 6.9756 4.0217 17.6299 11.1601 3.5772 17.4247 13.2849 8.3940 17.9148 10.9899 3.2923 17.7182 11.2855 3.4889 18.0980 9.2632 2.1436 18.1760 11.3293 3.0311 17.7197 5.7684 5.8454 18.0620 10.0000 2.5217 17.8873 10.7734 3.3198 18.2224 11.0092 2.9847 15.3413 12.1155 8.3940 17.4317 13.6222 8.3940 18.1774 10.9889 3.0297 18.5180 9.3510 2.9297 18.0245 10.0000 2.5598 15.7811 13.4996 8.3940 18.8339 6.6919 3.6571 18.0472 5.8843 5.3344 18.9246 6.6149 4.8148 17.4418 11.1446 3.7653 18.1550 9.3123 2.2006 19.4825 4.9915 6.0149 17.2525 11.3562 8.3940 18.0854 11.2476 3.1217 17.5914 11.033
[...]
    <PointData>
        <DataArray type="Float32" Name="tag" format="ascii">
            131.0000 299.0000 627.0000 739.0000 1131.0000 1567.0000 1791.0000 1907.0000 2035.0000 2191.0000 2391.0000 2475.0000 2491.0000 3023.0000 3271.0000 4395.0000 4415.0000 4643.0000 4891.0000 5115.0000 5299.0000 5455.0000 5643.0000 5703.0000 5815.0000 6851.0000 6911.0000 7147.0000 7427.0000 7883.0000 7919.0000 8199.0000 8263.0000 8291.0000 8603.0000 8615.0000 8815.0000 9019.0000 9027.0000 9039.0000 9255.0000 9295.0000 9407.0000 9459.0000 9471.0000 9751.0000 9963.0000 10155.0000 10279.0000 10311.0000 10495.0000 10531.0000 10611.0000 10691.0000 10763.0000 11283.0000 11351.0000 11427.0000 11435.0000 11439.0000 11471.0000 11759.0000 11855.0000 12011.0000 12211.0000 12239.0000 12279.0000 12395.0000 12411.0000 12631.0000 12719.0000 12939.0000 13023.0000 13083.0000 13119.0000 13179.0000 13875.0000 14087.0000 14151.0000 14179.0000 14215.0000 14255.0000 14327.0000 14491.0000 14763.0000 15083.0000 15279.0000 15671.0000 15935.0000 15971.0000 16031.0000 16147.0000 16539.0000 16811.0000 17007.0000 17231.0000 17235.0000 17555.0000 17567.0000 17919.0000 18279.0000 18511.0000 19547.0000 20267.0000 20519.0000 20955.0000 21071.0000 21147.0000 21615.0000 21671.0000 21719.0000 21919.0000 22071.0000 22595.0000 23255.0000 23339.0000 23367.0000 23623.0000 23731.0000 23847.0000 23951.0000 24011.0000 24127.0000 24307.0000 24699.0000 24707.0000 24743.0000 24847.0000 25151.0000 25303.0000 25579.0000 25739.0000 26175.0000 26207.0000 26219.0000 26471.0000 26507.0000 26959.0000 27135.0000 27527.0000 27587.0000 27723.0000 27967.0000 27991.0000 28031.0000 28199.0000 28351.0000 28675.0000 28779.0000 28923.0000 29639.0000 29719.0000 30023.0000 30087.0000 30379.0000 30395.0000 30827.0000 30863.0000 31167.0000 31639.0000 31723.0000 31915.0000 31967.0000 32111.0000 32255.0000 32479.0000 32611.0000 32667.0000 32943.0000 33107.0000 33351.0000 33435.0000 33563.0000 33599.0000 33943.0000 34135.0000 34571.0000 34791.0000 35239.0000 35535.0000 35675.0000 35715.0000 35779.0000 35855.0000 35963.0000 35995.0000 36087.0000 36223.0000 36359.0000 36495.0000 36547.0000 36699.0000 36711.0000 36935.0000 36947.0000 37555.0000 37735.0000 38219.0000 38247.0000 38399.0000 38491.0000 38523.0000 38535.0000 38583.0000 38591.0000 38627.0000 39019.0000 39063.0000 39147.0000 39283.0000 39383.0000 39407.0000 39655.0000 39843.0000 39943.0000 40335.0000 40439.0000 40535.0000 40711.0000 40727.0000 40963.0000 41183.0000 41231.0000 41359.0000 41499.0000 41515.0000 41551.0000 41567.0000 41699.0000 41895.0000 41959.0000 42015.0000 42139.0000 42223.0000 42351.0000 42375.0000 42815.0000 42967.0000 43239.0000 43351.0000 43367.0000 43411.0000 43467.0000 43483.0000 43535.0000 43867.0000 43903.0000 43959.0000 44151.0000 44219.0000 44331.0000 44487.0000 44539.0000 45039.0000 45131.0000 45287.0000 45339.0000 45371.0000 45395.0000 45611.0000 45827.0000 45875.0000 45887.0000 45931.0000 46091.0000 46347.0000 46351.0000 46683.0000 46735.0000 46887.0000 50003.0000 57135.0000 64467.0000 65415.0000 60363.0000 59571.0000 58735.0000 66311.0000 66307.0000 58715.0000 64427.0000 63635.0000 65379.0000 66299.0000 67147.0000 57979.0000 61283.0000 61995.0000 66283.0000 50895.0000 66279.0000 65331.0000 60439.0000 59611.0000 57147.0000 59607.0000 55207.0000 47015.0000 47019.0000 47043.0000 47191.0000 47311.0000 47347.0000 47355.0000 47411.0000 47419.0000 47575.0000 48003.0000 48039.0000 48071.0000 48219.0000 48255.0000 48363.0000 48551.0000 48791.0000 49111.0000 49155.0000 49199.0000 49299.0000 49507.0000 49523.0000 49643.0000 49683.0000 49771.0000 49863.0000 49967.0000 50039.0000 50047.0000 50059.0000 50063.0000 50311.0000 50415.0000 50539.0000 50675.0000 50735.0000 50751.0000 50795.0000 50815.0000 51007.0000 51087.0000 51191.0000 51199.0000 51271.0000 51291.0000 51379.0000 51527.0000 51691.0000 51799.0000 51815.0000 51891.0000 52391.0000 52491.0000 52675.0000 52827.0000 52835.0000 52923.0000 52931.0000 52963.0000 53107.0000 53123.0000 53131.0000 53191.0000 53423.0000 53515.0000 53535.0000 53539.0000 53583.0000 53599.0000 53963.0000 54415.0000 54499.0000 54519.0000 54727.0000 54755.0000 54827.0000 55015.0000 55035.0000 55039.0000 55143.0000 55283.0000 55399.0000 55411.0000 55443.0000 55543.0000 55623.0000 55651.0000 56031.0000 56047.0000 56071.0000 56103.0000 56307.0000 56467.0000 56535.0000 56603.0000 56731.0000 56759.0000 56779.0000 56991.0000 57063.0000 57183.0000 57395.0000 57487.0000 57787.0000 57847.0000 58003.0000 58095.0000 58143.0000 58179.0000 58379.0000 58471.0000 58527.0000 58607.0000 58647.0000 58819.0000 58875.0000 59035.0000 59167.0000 59423.0000 59667.0000 59923.0000 59927.0000 59947.0000 60063.0000 60167.0000 60495.0000 60563.0000 60651.0000 60671.0000 60675.0000 61407.0000 61587.0000 61607.0000 61627.0000 61659.0000 61847.0000 61895.0000 61967.0000 62139.0000 62419.0000 62431.0000 62527.0000 62535.0000 62599.0000 62675.0000 62951.0000 63403.0000 63815.0000 63855.0000 63887.0000 63911.0000 63927.0000 63995.0000 64019.0000 64059.0000 64123.0000 64587.0000 64607.0000 64683.0000 64803.0000 64811.0000 64835.0000 64999.0000 65099.0000 65143.0000 65163.0000 65271.0000 65551.0000 65579.0000 65927.0000 65975.0000 65983.0000 66003.0000 66075.0000 66179.0000 66419.0000 66423.0000 66439.0000 66479.0000 66523.0000 66703.0000 66707.0000 66955.0000 67087.0000 67091.0000 81631.0000 82479.0000 73815.0000 83315.0000 73803.0000 84147.0000 80691.0000 72223.0000 82451.0000 80683.0000 74655.0000 72219.0000 74635.0000 78979.0000 81515.0000 71495.0000 72203.0000 77203.0000 69439.0000 73731.0000 83227.0000 76311.0000 72179.0000 69415.0000 69411.0000 71559.0000 75571.0000 80583.0000 84911.0000 67267.0000 67687.0000 67715.0000 68047.0000 68295.0000 68487.0000 68511.0000 68587.0000 68607.0000 68883.0000 68923.0000 69067.0000 69187.0000 69471.0000 69479.0000 69487.0000 69491.0000 69651.0000 69879.0000 69995.0000 70255.0000 70379.0000 70659.0000 70879.0000 70911.0000 70931.0000 71059.0000 71147.0000 71271.0000 71579.0000 71627.0000 71799.0000 71815.0000 71931.0000 71955.0000 72047.0000 72127.0000 72131.0000 72307.0000 72331.0000 72379.0000 72523.0000 72539.0000 72547.0000 72607.0000 72627.0000 72795.0000 73115.0000 73151.0000 73219.0000 73623.0000 73695.0000 73707.0000 73947.0000 73999.0000 74051.0000 74099.0000 74259.0000 74367.0000 74723.0000 74755.0000 74783.0000 74839.0000 74859.0000 74915.0000 74955.0000 75075.0000 75171.0000 75267.0000 75379.0000 75595.0000 75631.0000 75651.0000 75683.0000 75711.0000 75719.0000 75987.0000 76267.0000 76459.0000 76515.0000 76739.0000 76863.0000 76995.0000 77059.0000 77143.0000 77315.0000 77351.0000 77383.0000 77399.0000 77451.0000 77459.0000 77515.0000 77527.0000 77607.0000 77727.0000 77867.0000 77967.0000 78003.0000 78239.0000 78451.0000 78543.0000 78615.0000 78643.0000 78867.0000 79503.0000 79511.0000 79527.0000 79911.0000 79967.0000 79999.0000 80051.0000 80091.0000 80435.0000 80563.0000 80831.0000 80843.0000 81035.0000 81075.0000 81175.0000 81243.0000 81379.0000 81735.0000 81759.0000 81919.0000 82155.0000 82235.0000 82299.0000 82543.0000 82699.0000 82731.0000 83019.0000 83143.0000 83415.0000 83623.0000 83867.0000 83919.0000 83987.0000 84295.0000 84435.0000 84607.0000 84667.0000 84699.0000 84823.0000 85127.0000 85171.0000 85227.0000 85251.0000 85287.0000 85427.0000 85487.0000 85955.0000 85959.0000 86047.0000 86067.0000 86071.0000 86155.0000 86383.0000 97835.0000 91619.0000 91603.0000 103843.0000 88503.0000 90855.0000 99303.0000 103835.0000 98515.0000 91571.0000 105527.0000 93799.0000 95863.0000 90835.0000 105495.0000 97147.0000 91539.0000 88455.0000 99255.0000 107171.0000 101007.0000 99251.0000 95203.0000 100103.0000 105467.0000 90035.0000 99215.0000 106303.0000 99207.0000 107127.0000 101803.0000 100931.0000 106259.0000 100059.0000 97071.0000 101779.0000 97675.0000 102771.0000 99107.0000 93675.0000 97047.0000 87535.0000 101755.0000 101751.0000 107067.0000 100175.0000 107059.0000 106195.0000 107015.0000 107011.0000 100855.0000 102715.0000 90747.0000 100839.0000 95095.0000 101699.0000 99959.0000 106151.0000 92235.0000 89959.0000 88339.0000 100827.0000 99047.0000 106139.0000 95751.0000 101679.0000 106127.0000 100807.0000 101959.0000 102899.0000 101655.0000 106111.0000 99935.0000 101635.0000 103523.0000 99011.0000 99903.0000 101607.0000 103515.0000 102595.0000 103511.0000 105207.0000 86863.0000 86895.0000 86915.0000 86931.0000 86979.0000 86999.0000 87075.0000 87083.0000 87139.0000 87291.0000 87739.0000 87807.0000 88039.0000 88083.0000 88187.0000 88195.0000 88559.0000 88663.0000 88727.0000 88823.0000 88919.0000 89023.0000 89039.0000 89095.0000 89423.0000 89475.0000 89671.0000 89719.0000 89731.0000 89735.0000 90231.0000 90283.0000 90287.0000 90303.0000 90331.0000 90363.0000 90383.0000 90475.0000 90631.0000 90899.0000 90915.0000 90963.0000 91307.0000 91771.0000 91823.0000 91843.0000 91967.0000 91999.0000 92067.0000 92115.0000 92127.0000 92143.0000 92403.0000 92415.0000 92515.0000 92599.0000 93151.0000 93203.0000 93219.0000 93343.0000 93515.0000 93959.0000 93983.0000 94103.0000 94207.0000 94219.0000 94379.0000 94419.0000 94623.0000 94639.0000 94643.0000 94655.0000 94791.0000 95035.0000 95295.0000 95307.0000 95339.0000 95419.0000 95427.0000 95503.0000 95515.0000 95675.0000 95947.0000 96019.0000 96055.0000 96239.0000 96259.0000 96555.0000 96571.0000 96635.0000 96643.0000 96667.0000 96679.0000 96695.0000 96747.0000 96755.0000 96771.0000 96891.0000 97291.0000 97403.0000 97487.0000 97491.0000 97871.0000 97887.0000 97919.0000 97923.0000 97927.0000 97939.0000 98015.0000 98019.0000 98191.0000 98599.0000 98615.0000 98671.0000 98675.0000 98719.0000 98767.0000 98847.0000 98879.0000 98935.0000 98943.0000 99323.0000 99327.0000 99407.0000 99611.0000 99615.0000 99647.0000 100215.0000 100251.0000 100295.0000 100303.0000 100319.0000 100331.0000 100383.0000 100427.0000 100463.0000 100479.0000 100703.0000 100735.0000 101067.0000 101083.0000 101099.0000 101127.0000 101167.0000 101195.0000 101199.0000 101203.0000 101279.0000 101495.0000 101523.0000 101991.0000 102159.0000 102207.0000 102287.0000 102335.0000 102379.0000 102399.0000 102411.0000 102531.0000 102995.0000 103019.0000 103031.0000 103039.0000 103075.0000 103175.0000 103331.0000 103407.0000 103427.0000 103435.0000 103475.0000 103955.0000 103959.0000 104007.0000 104047.0000 104059.0000 104063.0000 104091.0000 104115.0000 104159.0000 104183.0000 104215.0000 104227.0000 104315.0000 104763.0000 104843.0000 104891.0000 104903.0000 104915.0000 104923.0000 104935.0000 104943.0000 104979.0000 105163.0000 105171.0000 105603.0000 105639.0000 105775.0000 105795.0000 105807.0000 105843.0000 105959.0000 105999.0000 106419.0000 106487.0000 106531.0000 106583.0000 106639.0000 106667.0000 106683.0000 106723.0000 106779.0000 106835.0000 106851.0000 126255.0000 120087.0000 115571.0000 124595.0000 125427.0000 118583.0000 110443.0000 121587.0000 120071.0000 121423.0000 118571.0000 117819.0000 119863.0000 109655.0000 116319.0000 122951.0000 117811.0000 113115.0000 117623.0000 117051.0000 121583.0000 120615.0000 118559.0000 114803.0000 108019.0000 123667.0000 117043.0000 120599.0000 125207.0000 112027.0000 111431.0000 122139.0000 126063.0000 109559.0000 126051.0000 112863.0000 116047.0000 108719.0000 108903.0000 115271.0000 116747.0000 121359.0000 113739.0000 124379.0000 126855.0000 123595.0000 110339.0000 119071.0000 126023.0000 111139.0000 112811.0000 111951.0000 112803.0000 109511.0000 117011.0000 111947.0000 120551.0000 109731.0000 123059.0000 111415.0000 112259.0000 113939.0000 124359.0000 125135.0000 111103.0000 111923.0000 111919.0000 111911.0000 116015.0000 112767.0000 111903.0000 112759.0000 107835.0000 125383.0000 112751.0000 124351.0000 116259.0000 126831.0000 118519.0000 121303.0000 116999.0000 107815.0000 120519.0000 125099.0000 111871.0000 125975.0000 120011.0000 119003.0000 126815.0000 111067.0000 114407.0000 123519.0000 118179.0000 124311.0000 114759.0000 118167.0000 116611.0000 116599.0000 110227.0000 115931.0000 124287.0000 125959.0000 115923.0000 115919.0000 125063.0000 119699.0000 116983.0000 120479.0000 114371.0000 121203.0000 115463.0000 120467.0000 115119.0000 125051.0000 121187.0000 120463.0000 108571.0000 111023.0000 118131.0000 113603.0000 110191.0000 116235.0000 121167.0000 118935.0000 119659.0000 123451.0000 112655.0000 122775.0000 117423.0000 118927.0000 119647.0000 116519.0000 117415.0000 118115.0000 112647.0000 121143.0000 121127.0000 124231.0000 123435.0000 118095.0000 109383.0000 111003.0000 122731.0000 124199.0000 119615.0000 109379.0000 118079.0000 118075.0000 126675.0000 118879.0000 114323.0000 118871.0000 118867.0000 123399.0000 124183.0000 124927.0000 124179.0000 118859.0000 112591.0000 109351.0000 112587.0000 122671.0000 115831.0000 118847.0000 118843.0000 110139.0000 114291.0000 110967.0000 112571.0000 122639.0000 118039.0000 111719.0000 126603.0000 112551.0000 115027.0000 120331.0000 122635.0000 118835.0000 124887.0000 109327.0000 114275.0000 114271.0000 121079.0000 125775.0000 125771.0000 125767.0000 111675.0000 119515.0000 118803.0000 118011.0000 122615.0000 126559.0000 125743.0000 120291.0000 125739.0000 124535.0000 126535.0000 118779.0000 124087.0000 120747.0000 119267.0000 121507.0000 108855.0000 119251.0000 109707.0000 122259.0000 118459.0000 116187.0000 113883.0000 118447.0000 117719.0000 115399.0000 116919.0000 109679.0000 122999.0000 118419.0000 124495.0000 116143.0000 126155.0000 123747.0000 119191.0000 119179.0000 126975.0000 112119.0000 111295.0000 122223.0000 125299.0000 107263.0000 107295.0000 107339.0000 107391.0000 107423.0000 107483.0000 107555.0000 107619.0000 108091.0000 108099.0000 108195.0000 108203.0000 108231.0000 108251.0000 108255.0000 108371.0000 108451.0000 108459.0000 109031.0000 109035.0000 109119.0000 109151.0000 109191.0000 109275.0000 109287.0000 109791.0000 109855.0000 109911.0000 109983.0000 110667.0000 110691.0000 110759.0000 110803.0000 110831.0000 110843.0000 110883.0000 110899.0000 110903.0000 111467.0000 111475.0000 111503.0000 111515.0000 111607.0000 111623.0000 111655.0000 112371.0000 112479.0000 113155.0000 113203.0000 113299.0000 113419.0000 113447.0000 113483.0000 113487.0000 114039.0000 114087.0000 114099.0000 114243.0000 114895.0000 114899.0000 114915.0000 114927.0000 114943.0000 114991.0000 115667.0000 115767.0000 116331.0000 116371.0000 116391.0000 116419.0000 117127.0000 117167.0000 117175.0000 117311.0000 117835.0000 117855.0000 117891.0000 117967.0000 118591.0000 118611.0000 118667.0000 118719.0000 118739.0000 119343.0000 119419.0000 119447.0000 120111.0000 120135.0000 120151.0000 120183.0000 120243.0000 120251.0000 120883.0000 121031.0000 121611.0000 121643.0000 121651.0000 121679.0000 121719.0000 121743.0000 122375.0000 122479.0000 122503.0000 122539.0000 123099.0000 123127.0000 123131.0000 123159.0000 123175.0000 123203.0000 123215.0000 123219.0000 123227.0000 123259.0000 123283.0000 123939.0000 124015.0000 124043.0000 124051.0000 124659.0000 124663.0000 124715.0000 124735.0000 124743.0000 124747.0000 124791.0000 124799.0000 124807.0000 124823.0000 125439.0000 125483.0000 125547.0000 125603.0000 125655.0000 125671.0000 125675.0000 126351.0000 126383.0000 126423.0000 126427.0000 126443.0000 126471.0000 126479.0000 140835.0000 137607.0000 127907.0000 137603.0000 146967.0000 139287.0000 132015.0000 136687.0000 134779.0000 145099.0000 134863.0000 127759.0000 135659.0000 134759.0000 140819.0000 129559.0000 145907.0000 133787.0000 130243.0000 137587.0000 146023.0000 127743.0000 134731.0000 136563.0000 127891.0000 139203.0000 133951.0000 132915.0000 128611.0000 135619.0000 133039.0000 131191.0000 131959.0000 139195.0000 128591.0000 130379.0000 146823.0000 130987.0000 144035.0000 130215.0000 127879.0000 130983.0000 135603.0000 145879.0000 130207.0000 135751.0000 130363.0000 130971.0000 130195.0000 128563.0000 127731.0000 135591.0000 141471.0000 129547.0000 136519.0000 136515.0000 140795.0000 132075.0000 133731.0000 129355.0000 143183.0000 128547.0000 136511.0000 134667.0000 136503.0000 146927.0000 139891.0000 137411.0000 133927.0000 142315.0000 129539.0000 146923.0000 145851.0000 128535.0000 142311.0000 133703.0000 130175.0000 146759.0000 129335.0000 130935.0000 144103.0000 128699.0000 138479.0000 140603.0000 135507.0000 145831.0000 136639.0000 131899.0000 129307.0000 128691.0000 134827.0000 131159.0000 136479.0000 131151.0000 128515.0000 129527.0000 145047.0000 144087.0000 132851.0000 143271.0000 138455.0000 142415.0000 138307.0000 135715.0000 145815.0000 133675.0000 131131.0000 143955.0000 135499.0000 127659.0000 142271.0000 138447.0000 146735.0000 127639.0000 143111.0000 130907.0000 145027.0000 146903.0000 143235.0000 134603.0000 139247.0000 130883.0000 140571.0000 127627.0000 131859.0000 136431.0000 143071.0000 135683.0000 129239.0000 132787.0000 137515.0000 129223.0000 130847.0000 145763.0000 128427.0000 139815.0000 137371.0000 136411.0000 130819.0000 130079.0000 131807.0000 130075.0000 137359.0000 129175.0000 134535.0000 140543.0000 142223.0000 136387.0000 129151.0000 129147.0000 134503.0000 132715.0000 139047.0000 134499.0000 130015.0000 133555.0000 140515.0000 127495.0000 133547.0000 135355.0000 132699.0000 139783.0000 128347.0000 128339.0000 134463.0000 135331.0000 136319.0000 134455.0000 132687.0000 133495.0000 129071.0000 134423.0000 139747.0000 127443.0000 134395.0000 133483.0000 141259.0000 137295.0000 143831.0000 144999.0000 142171.0000 140455.0000 146619.0000 135283.0000 142159.0000 140451.0000 146611.0000 129943.0000 132643.0000 143815.0000 129935.0000 135259.0000 131651.0000 138147.0000 129919.0000 127395.0000 130631.0000 145639.0000 130603.0000 139651.0000 139647.0000 142919.0000 140407.0000 129891.0000 145607.0000 144703.0000 143759.0000 134283.0000 146567.0000 132555.0000 140379.0000 136211.0000 131583.0000 142091.0000 142891.0000 129007.0000 130567.0000 138051.0000 143731.0000 129859.0000 145547.0000 142859.0000 134259.0000 132507.0000 128979.0000 142823.0000 135139.0000 139583.0000 146515.0000 128967.0000 140323.0000 138895.0000 129495.0000 145479.0000 140307.0000 131091.0000 145475.0000 131543.0000 142775.0000 137135.0000 127299.0000 141115.0000 140303.0000 136147.0000 136143.0000 142003.0000 138007.0000 133883.0000 145459.0000 136135.0000 138855.0000 130495.0000 144575.0000 133359.0000 135675.0000 144563.0000 144051.0000 145431.0000 145927.0000 130275.0000 144551.0000 132019.0000 127103.0000 127123.0000 127175.0000 127255.0000 127259.0000 127967.0000 128059.0000 128067.0000 128115.0000 128795.0000 128847.0000 129579.0000 129623.0000 129687.0000 129799.0000 130475.0000 131275.0000 131279.0000 131391.0000 131399.0000 131415.0000 132159.0000 132187.0000 132207.0000 132211.0000 132291.0000 132307.0000 132423.0000 132439.0000 133063.0000 133111.0000 133123.0000 133211.0000 133243.0000 133275.0000 133339.0000 134055.0000 134059.0000 134067.0000 134119.0000 134147.0000 134151.0000 134899.0000 134919.0000 134923.0000 134927.0000 134947.0000 134991.0000 135011.0000 135787.0000 135835.0000 135839.0000 135891.0000 135987.0000 135999.0000 136003.0000 136007.0000 136027.0000 136055.0000 136079.0000 136087.0000 136103.0000 136727.0000 136755.0000 136935.0000 136943.0000 137635.0000 137687.0000 137691.0000 137727.0000 137771.0000 137843.0000 137867.0000 137903.0000 137975.0000 138547.0000 138643.0000 138683.0000 138703.0000 138711.0000 138751.0000 138787.0000 138791.0000 138839.0000 139343.0000 139367.0000 139395.0000 139463.0000 139491.0000 140103.0000 140123.0000 140147.0000 140171.0000 140839.0000 140879.0000 140919.0000 140943.0000 140947.0000 141047.0000 141631.0000 141643.0000 141659.0000 141715.0000 141735.0000 141763.0000 141819.0000 141823.0000 141855.0000 141867.0000 141879.0000 142475.0000 142507.0000 142535.0000 142563.0000 142583.0000 142599.0000 142631.0000 142691.0000 142727.0000 143319.0000 143375.0000 143455.0000 143511.0000 143539.0000 143583.0000 143635.0000 143639.0000 144243.0000 144255.0000 144259.0000 144267.0000 144311.0000 144415.0000 144479.0000 144519.0000 145183.000