<?xml version="1.0"?>
<VTKFile type="PolyData" version="1.0" byte_order="LittleEndian" header_type="UInt64">
<PolyData>
<Piece NumberOfPoints="1624" NumberOfVerts="0" NumberOfLines="0" NumberOfPolys="0">
    <Points>
        <DataArray type="Float32" NumberOfComponents="3" format="ascii">
        15.3131 5.7952 5.6052 17.4863 10.8534 3.7208 16.1475 8.8670 2.6232 17.2056 11.6961 4.0015 17.1191 10.4736 4.0880 16.6970 10.0000 1.9474 16.4662 8.9704 2.1179 17.6708 10.9694 3.5363 16.4304 8.5370 2.3394 17.2001 11.4927 4.0070 17.7045 10.7971 3.5027 17.1266 10.4211 4.0805 16.8098 10.0000 3.1991 15.8013 9.5332 1.9650 17.1536 8.2077 3.0782 16.7742 7.8244 3.0894 17.7273 10.6403 3.4799 16.6773 8.7798 2.9195 17.1168 8.3320 3.0500 18.0763 10.9405 3.1308 16.8302 8.5752 2.6624 17.3764 10.7533 3.8307 16.1003 6.7471 5.0012 17.1193 8.2896 3.1167 16.6403 7.3810 3.4406 16.6630 8.4500 2.3184 17.5245 11.0138 3.6826 17.4739 10.3841 3.7332 17.6633 11.3958 3.5438 15.8094 6.8473 4.8738 17.1042 7.9781 3.3273 16.7256 7.6846 4.9064 17.5659 10.6691 3.6412 17.4724 10.7172 3.7347 15.9864 7.3079 4.5083 17.8039 11.3442 3.4032 16.2051 8.7063 3.2416 17.5356 11.2595 3.6715 17.3150 11.3775 3.8921 16.7513 7.4354 3.4504 17.2220 11.8496 3.9851 17.8041 11.3436 3.4030 16.3869 6.9956 4.9338 16.6912 8.0659 3.2132 17.1085 11.8788 4.0986 17.6038 11.3823 3.6033 16.6518 8.3488 2.4574 16.2871 10.0000 2.7197 17.8059 10.9569 3.4012 16.1181 8.6585 3.6330 16.5832 7.8236 3.3933 16.6103 8.0035 3.4775 17.1259 11.4671 4.0812 16.0185 8.7744 3.5829 16.9449 10.0000 1.7810 17.1680 11.5216 4.0391 17.3300 11.5240 3.8771 16.7560 7.7584 3.3866 17.0166 7.9581 3.6715 16.6799 10.0000 2.6068 16.7108 7.3646 3.5845 17.7809 10.6759 3.4262 17.9158 11.2057 3.2913 17.7470 10.6253 3.4601 17.0277 11.9905 4.1794 17.8532 11.0829 3.3539 17.0159 6.6462 4.2455 16.7384 7.6709 3.7380 16.7371 10.0000 2.3197 16.4588 7.1108 4.6394 16.8001 9.9544 3.4347 16.8664 10.0000 1.7544 17.7752 10.6017 3.4319 17.4374 11.1138 3.7697 15.5146 8.5123 4.5028 16.8670 10.0000 1.7906 16.4403 8.5297 3.4740 18.1275 10.9840 3.0796 16.2031 7.3079 4.3706 17.2177 11.5462 3.9894 16.7996 7.4408 3.2791 17.7855 10.7221 3.4216 16.5305 7.3269 4.0695 15.9831 6.6526 5.1251 16.1145 3.5834 7.0490 15.9095 6.0631 5.7271 17.9417 11.1277 3.2654 16.7694 6.6314 4.9687 16.8342 7.8816 3.4906 16.3938 7.7043 4.4701 16.5794 10.0000 2.8868 15.7829 9.2595 3.7724 17.6802 10.9168 3.5269 17.0782 11.6140 4.1289 15.4813 9.2971 3.9214 16.7378 7.3608 3.8146 17.5972 10.7750 3.6099 15.3669 7.3233 5.9041 17.1065 11.7851 4.1006 17.6038 10.4958 3.6034 16.8005 9.9421 4.3977 17.8175 10.8178 3.3896 17.6604 10.7594 3.5467 16.0863 9.0061 3.7985 16.0363 2.6357 7.0575 17.1719 11.9913 4.0352 15.9453 9.9675 3.1851 17.0149 11.9665 4.1922 17.5677 11.2524 3.6394 15.0282 8.3826 5.2605 16.9889 11.8899 4.2182 16.6546 6.5434 4.9344 17.6768 10.8873 3.5303 17.2162 11.6809 3.9909 17.6769 10.4161 3.5302 16.9964 4.9112 5.7861 16.3362 7.0241 4.5546 16.6721 10.0000 2.9267 16.5239 4.2247 6.5227 17.5484 10.5293 3.6587 16.5913 10.0000 2.7864 17.4984 10.3772 3.7087 17.2249 11.9092 3.9822 17.7481 10.6705 3.4590 16.8464 5.0639 6.0027 17.6614 10.5063 3.5457 17.2181 11.8447 3.9891 17.5307 10.3075 3.6764 16.9741 11.8141 4.2330 17.8968 10.5255 3.3103 17.5695 11.3054 3.6376 15.0245 7.6051 6.4905 17.8430 10.6904 3.3641 15.9425 9.1128 4.5944 18.0772 10.9908 3.1299 17.7323 11.2571 3.4748 17.5782 10.2295 3.6289 16.6851 10.0000 3.5986 16.1021 6.0968 5.9377 17.1674 11.7284 4.0397 17.8732 10.8315 3.3339 17.0655 10.2371 4.1416 17.0208 10.5232 4.1863 16.2664 5.6913 6.0917 16.1551 10.0000 3.9038 17.4896 10.3841 3.7175 15.9035 10.0011 3.7272 17.7457 10.5962 3.4614 15.0051 7.5710 6.5339 17.9381 10.5505 3.2690 17.6852 10.5890 3.5219 17.0525 11.8724 4.1546 17.9404 11.2630 3.2667 15.5510 10.1240 4.7079 15.8075 9.5218 4.1461 16.7541 10.1109 4.4530 17.7763 11.1909 3.4308 15.0223 7.9156 5.8851 15.0183 8.7449 5.4495 16.4949 10.2001 4.7122 17.7293 10.1469 3.4778 17.6916 11.2516 3.5155 17.9657 11.2658 3.2414 15.5099 9.9047 4.6844 17.5757 11.2962 3.6314 16.8712 10.3759 4.3359 18.0086 11.2869 3.1985 17.5258 11.2948 3.6813 17.8053 11.3859 3.4018 15.7632 9.7938 4.1106 15.3342 8.5946 5.7512 17.4696 11.1890 3.7375 17.8542 10.4991 3.3529 17.2114 11.6226 3.9957 15.7259 9.2703 5.0390 15.5838 4.4778 7.4656 15.5702 10.0744 4.7271 15.7664 9.6571 4.4241 16.5804 10.2114 4.6267 16.9005 10.2801 4.3639 17.4841 11.3279 3.7230 16.9792 11.9924 4.2279 15.3437 9.7814 5.2902 17.2290 11.4616 3.9781 16.9449 10.5450 4.2622 17.0022 11.8579 4.2049 17.7906 10.5285 3.4165 16.3618 10.3117 4.8453 18.0149 11.0602 3.1922 16.7148 10.1938 4.4923 17.8796 10.7568 3.3275 17.9136 10.5008 3.2935 17.9168 10.8925 3.2903 17.7175 10.9115 3.4896 17.9330 10.7549 3.2741 17.8286 11.2117 3.3785 17.8211 11.1730 3.3860 17.0487 11.7226 4.1584 17.1505 11.5766 4.0566 16.4190 10.2708 4.7882 17.0230 10.4643 4.1841 16.2387 10.2402 4.9684 17.0437 10.3699 4.1634 15.4568 8.5985 5.8201 16.4461 10.1498 4.7610 17.9072 10.7827 3.2999 16.7086 10.1139 4.8040 16.7564 10.1758 4.7010 17.6599 10.9290 3.5473 17.0885 11.9534 4.1186 16.7000 8.9748 3.1780 15.0495 9.0063 6.2513 17.1560 11.8108 4.0511 16.8687 11.8276 4.3384 17.9703 10.7743 3.2368 17.8383 11.2476 3.3688 17.1611 11.7028 4.0460 17.9362 11.0431 3.2709 17.3445 10.3664 3.8626 17.6601 10.5207 3.5470 17.7016 10.8488 3.5055 17.5733 10.9204 3.6338 16.3070 10.0000 4.2092 17.3063 11.7894 3.9008 17.7914 10.8453 3.4157 15.4943 10.1706 4.8743 17.4226 10.4604 3.7845 17.8583 11.3574 3.3488 17.7133 10.9436 3.4938 16.7655 9.9191 2.4354 17.6767 10.5379 3.5304 17.0604 10.5315 4.1467 17.6739 10.9948 3.5332 15.9424 10.0000 4.7884 17.5086 11.1692 3.6985 16.5456 10.0000 3.3941 15.9571 10.0000 4.3118 17.3429 10.0000 3.8642 16.0218 10.0000 3.9369 16.9997 9.6441 3.1634 16.0222 9.4251 2.8180 17.8778 10.5777 3.3293 17.6944 11.3709 3.5127 18.0871 10.9732 3.1200 17.5177 11.1006 3.6894 17.5958 10.7109 3.6113 15.8324 9.3302 5.1717 17.5387 10.9788 3.6684 17.5185 10.2477 3.6886 16.8039 10.1334 4.7155 17.1546 11.6610 4.0525 17.4461 11.2439 3.7610 16.9697 11.7024 4.2374 17.8119 10.3986 3.3952 15.3161 9.4561 5.6294 17.9277 11.1630 3.2795 15.8563 9.1583 2.9129 17.9060 10.8859 3.3011 16.7993 9.9989 5.0847 17.5787 11.2056 3.6284 15.9101 9.6683 4.1890 17.4350 11.4131 3.7721 17.2237 11.7362 3.9835 17.2274 10.3687 3.9797 17.6112 10.7358 3.5959 16.9708 11.8786 4.2363 17.6461 10.8146 3.5610 17.3786 11.2348 3.8285 15.9433 9.7627 4.0511 17.8788 10.8229 3.3283 17.5244 10.0000 1.6714 15.8930 9.1844 3.6508 15.6078 9.3601 5.4324 17.5256 11.1133 3.6815 15.5064 10.0052 4.6633 17.2171 11.0732 3.9900 16.0652 9.0899 4.0738 16.3079 8.9332 5.5882 17.6169 10.6756 3.5902 17.8200 11.3753 3.3871 15.8743 8.9139 3.9277 17.5492 10.9072 3.6579 16.2465 6.5673 4.1353 17.8736 10.8737 3.3335 17.7565 10.2947 3.4506 15.8691 9.0066 5.1159 16.4711 7.6367 3.2927 17.6121 10.5415 3.5950 16.5145 9.3391 4.3989 17.8632 10.4695 3.3439 17.3251 9.9297 3.8820 17.5777 11.3328 3.6294 16.8515 11.9061 4.3556 17.1448 11.7894 4.0623 17.7763 11.0200 3.4308 17.0018 11.9024 4.2053 16.4737 8.7262 3.8331 16.5807 10.0000 3.2482 17.1049 11.2918 4.1022 17.7257 11.1747 3.4814 17.4111 10.0000 1.2835 17.3783 11.3590 3.8288 17.8538 10.6676 3.3533 17.4960 10.6405 3.7111 16.2274 9.2531 4.7930 17.4879 10.7339 3.7192 15.4171 8.7781 4.5515 16.7242 9.9226 3.7523 17.6410 10.3897 3.5661 17.5078 10.6640 3.6994 17.3752 11.8727 3.8319 16.7954 8.8513 3.6860 17.3247 10.3952 3.8824 16.7393 11.8936 4.4678 15.6825 6.5926 4.8713 17.5313 10.7295 3.6758 17.2639 11.1833 3.9432 16.8698 11.9892 4.3373 17.9049 10.7568 3.3022 16.9490 11.8721 4.2581 16.9101 11.4745 4.2970 16.6094 9.8683 3.7475 17.1630 11.2785 4.0441 17.1980 11.5947 4.0091 17.2619 11.4744 3.9452 16.8588 8.9473 4.6864 16.3134 8.6293 4.9517 15.1810 9.1792 5.4126 17.7482 10.5877 3.4589 15.9596 6.9224 4.2827 17.9859 10.7129 3.2212 15.9006 8.6464 3.3953 15.0186 7.2683 4.6244 17.8209 11.2034 3.3862 15.9481 9.0018 4.6093 15.5244 8.9167 5.4558 17.7630 11.3234 3.4441 15.4757 9.5949 4.9680 17.8866 10.8284 3.3205 17.8271 10.4379 3.3800 16.0479 6.5188 4.9905 16.2511 8.0079 3.5968 17.4430 10.0000 2.4328 17.8791 10.7620 3.3280 17.1012 11.6913 4.1059 17.2555 11.4684 3.9516 17.0099 9.0402 3.5620 17.9484 10.7631 3.2587 17.6793 10.6338 3.5279 17.3875 11.2914 3.8196 17.5121 10.2346 3.6950 17.1731 11.5933 4.0340 16.5948 8.0200 3.4017 17.6262 10.4638 3.5809 17.2847 11.2343 3.9224 15.8543 8.1143 3.7217 17.3901 11.1604 3.8170 17.8953 10.7978 3.3119 17.9840 10.6821 3.2231 17.7227 11.3564 3.4844 16.1186 7.6481 3.2115 17.8619 10.4281 3.3452 16.9145 11.8120 4.2926 15.5955 7.2617 5.1459 15.8689 8.4337 2.7690 16.1271 8.2596 5.0989 15.1800 8.9090 5.2981 15.7839 8.2524 5.1165 16.8545 11.9470 4.3526 17.6194 10.5425 3.5877 17.8833 10.3814 3.3238 17.3037 10.8062 3.9034 16.8580 11.9775 4.3491 17.3256 9.8374 3.1060 17.7505 10.4351 3.4566 15.8026 7.1787 4.4368 17.3659 11.4541 3.8412 17.1026 8.6866 4.4069 16.8002 11.9049 4.4069 16.7348 7.3424 3.9295 17.2143 10.9850 3.9928 17.3596 11.3098 3.8475 16.8035 11.9297 4.4036 17.7103 11.2916 3.4968 17.6763 11.2140 3.5308 16.8757 11.7937 4.3314 15.6464 7.3903 3.8966 16.1770 6.3744 5.2176 17.4713 11.3742 3.7358 17.4090 9.9419 3.6593 17.6369 10.1556 3.5702 17.4325 11.3391 3.7746 15.8917 6.8449 5.2550 17.3081 10.4414 3.8990 16.5537 7.9233 4.1674 16.8904 8.9950 3.8332 15.6312 7.0191 4.8873 17.4517 10.8018 3.7554 17.3271 10.0000 2.6211 17.3311 11.8038 3.8760 17.0373 11.9943 4.1698 16.3456 7.6617 3.3660 17.1759 10.2574 4.0312 15.2798 8.2765 5.6299 16.0274 7.2059 5.0796 17.9051 10.6246 3.3020 17.3722 11.7031 3.8349 15.2434 7.5879 5.6446 17.8856 10.6490 3.3215 17.3209 10.6959 3.8862 16.3192 8.9079 3.6722 17.6811 10.3685 3.5260 17.5530 10.7190 3.6541 17.6260 9.0325 3.6427 16.1238 6.6209 4.4627 17.0505 11.5840 4.1566 15.2457 7.1199 5.7136 15.1929 6.6140 5.5400 17.0469 11.8412 4.1602 15.8871 6.4996 5.5849 15.3984 7.1226 4.9214 16.3109 7.0015 4.4721 16.0355 6.7973 5.2104 17.8344 10.2297 3.3728 16.2351 9.1360 3.1993 17.3736 10.7657 3.8335 16.6953 8.5313 4.3451 17.2113 10.0000 1.5479 1
[...]
    <PointData>
        <DataArray type="Float32" Name="tag" format="ascii">
            131.0000 207.0000 219.0000 287.0000 299.0000 351.0000 379.0000 383.0000 455.0000 491.0000 627.0000 739.0000 935.0000 1023.0000 1099.0000 1119.0000 1131.0000 1171.0000 1211.0000 1307.0000 1551.0000 1567.0000 1791.0000 1803.0000 1855.0000 1859.0000 1883.0000 1907.0000 1927.0000 2035.0000 2083.0000 2191.0000 2391.0000 2475.0000 2491.0000 2563.0000 2623.0000 2767.0000 3023.0000 3087.0000 3167.0000 3195.0000 3271.0000 3423.0000 3463.0000 3567.0000 3607.0000 3663.0000 3711.0000 3775.0000 3795.0000 3819.0000 3839.0000 3883.0000 3943.0000 3983.0000 4015.0000 4067.0000 4127.0000 4183.0000 4187.0000 4395.0000 4403.0000 4415.0000 4463.0000 4551.0000 4555.0000 4583.0000 4615.0000 4643.0000 4751.0000 4843.0000 4891.0000 4899.0000 4947.0000 5015.0000 5035.0000 5107.0000 5115.0000 5227.0000 5271.0000 5299.0000 5455.0000 5643.0000 5655.0000 5703.0000 5767.0000 5815.0000 5867.0000 5891.0000 6055.0000 6207.0000 6275.0000 6627.0000 6663.0000 6671.0000 6851.0000 6911.0000 6943.0000 7147.0000 7175.0000 7183.0000 7427.0000 7495.0000 7575.0000 7587.0000 7783.0000 7803.0000 7867.0000 7883.0000 7903.0000 7919.0000 7983.0000 8187.0000 8199.0000 8263.0000 8291.0000 8367.0000 8603.0000 8615.0000 8803.0000 8815.0000 8931.0000 9019.0000 9027.0000 9039.0000 9183.0000 9255.0000 9267.0000 9295.0000 9379.0000 9407.0000 9459.0000 9471.0000 9639.0000 9695.0000 9751.0000 9799.0000 9963.0000 9995.0000 10131.0000 10155.0000 10279.0000 10311.0000 10419.0000 10495.0000 10515.0000 10531.0000 10611.0000 10691.0000 10763.0000 10803.0000 11015.0000 11051.0000 11283.0000 11351.0000 11367.0000 11427.0000 11435.0000 11439.0000 11471.0000 11551.0000 11567.0000 11759.0000 11807.0000 12011.0000 12027.0000 12127.0000 12143.0000 12171.0000 12211.0000 12219.0000 12239.0000 12275.0000 12279.0000 12283.0000 12303.0000 12359.0000 12395.0000 12411.0000 12427.0000 12499.0000 12631.0000 20727.0000 12719.0000 12731.0000 12939.0000 13023.0000 13075.0000 13083.0000 13119.0000 13179.0000 13415.0000 13775.0000 13787.0000 13811.0000 13847.0000 13851.0000 13871.0000 13875.0000 14087.0000 14151.0000 14179.0000 14215.0000 14255.0000 14295.0000 14327.0000 14491.0000 14555.0000 14611.0000 14615.0000 14763.0000 14807.0000 14827.0000 14899.0000 14903.0000 14959.0000 15039.0000 15083.0000 15279.0000 15283.0000 15399.0000 15407.0000 15455.0000 15567.0000 15575.0000 15671.0000 15695.0000 15783.0000 15923.0000 15935.0000 15971.0000 16007.0000 16031.0000 16087.0000 16099.0000 16135.0000 16147.0000 16187.0000 16327.0000 16387.0000 16539.0000 16643.0000 16703.0000 16807.0000 16811.0000 17007.0000 17103.0000 17231.0000 17235.0000 17371.0000 17375.0000 17467.0000 17555.0000 17567.0000 17651.0000 17795.0000 17903.0000 17919.0000 17947.0000 17955.0000 18027.0000 18127.0000 18279.0000 18511.0000 18523.0000 18763.0000 19115.0000 19143.0000 19231.0000 19347.0000 19395.0000 19547.0000 19923.0000 20267.0000 20519.0000 20707.0000 21071.0000 21147.0000 21239.0000 21319.0000 21323.0000 21383.0000 21439.0000 21615.0000 21671.0000 21715.0000 21719.0000 21819.0000 21919.0000 22071.0000 22107.0000 22139.0000 22203.0000 22311.0000 22319.0000 22403.0000 22467.0000 22595.0000 22835.0000 23071.0000 23239.0000 23255.0000 23339.0000 23355.0000 23367.0000 23371.0000 23607.0000 23623.0000 23731.0000 23755.0000 23779.0000 23847.0000 23855.0000 23859.0000 23951.0000 24011.0000 24091.0000 24127.0000 24131.0000 24151.0000 24223.0000 24307.0000 24335.0000 24379.0000 24467.0000 24699.0000 24707.0000 24743.0000 24791.0000 24847.0000 24899.0000 24943.0000 25011.0000 25135.0000 25151.0000 25243.0000 25303.0000 25403.0000 25579.0000 25603.0000 25623.0000 25655.0000 25739.0000 25755.0000 25775.0000 25971.0000 26039.0000 26175.0000 26187.0000 26207.0000 26223.0000 26323.0000 26471.0000 26507.0000 26599.0000 26815.0000 26875.0000 26959.0000 27083.0000 27091.0000 27135.0000 27319.0000 27387.0000 27499.0000 27527.0000 27587.0000 27723.0000 27767.0000 27967.0000 27991.0000 28031.0000 28103.0000 28151.0000 28199.0000 28203.0000 28207.0000 28231.0000 28295.0000 28323.0000 28351.0000 28467.0000 28471.0000 28479.0000 28503.0000 28523.0000 28535.0000 28619.0000 28627.0000 28675.0000 28779.0000 28875.0000 28883.0000 28923.0000 29159.0000 29239.0000 29267.0000 29407.0000 29439.0000 29571.0000 29579.0000 29635.0000 29639.0000 29719.0000 29991.0000 30023.0000 30075.0000 30087.0000 30379.0000 30395.0000 30655.0000 30827.0000 30863.0000 30895.0000 30963.0000 31115.0000 31167.0000 31199.0000 31219.0000 31235.0000 31247.0000 31287.0000 31631.0000 31639.0000 31679.0000 31723.0000 31763.0000 31879.0000 31915.0000 31943.0000 31951.0000 31967.0000 32091.0000 32111.0000 32199.0000 32255.0000 32335.0000 32479.0000 32511.0000 32547.0000 32567.0000 32607.0000 32611.0000 32667.0000 32779.0000 32795.0000 32851.0000 32943.0000 33031.0000 33063.0000 33107.0000 33283.0000 33351.0000 33411.0000 33435.0000 33563.0000 33599.0000 33843.0000 33867.0000 33891.0000 33903.0000 33911.0000 33943.0000 34103.0000 34135.0000 34167.0000 34183.0000 34295.0000 34331.0000 34571.0000 34631.0000 34675.0000 34687.0000 34791.0000 34859.0000 34975.0000 35111.0000 35239.0000 35271.0000 35359.0000 35367.0000 35383.0000 35399.0000 35487.0000 35495.0000 35535.0000 35675.0000 35715.0000 35779.0000 35803.0000 35855.0000 35963.0000 35995.0000 36071.0000 36087.0000 36135.0000 36223.0000 36359.0000 36403.0000 36435.0000 36495.0000 36535.0000 36547.0000 36691.0000 36699.0000 36711.0000 36723.0000 36791.0000 36795.0000 36803.0000 36887.0000 36919.0000 36935.0000 36947.0000 36959.0000 37171.0000 37263.0000 37363.0000 37387.0000 37503.0000 37555.0000 37583.0000 37631.0000 37647.0000 37699.0000 37731.0000 37735.0000 37831.0000 38003.0000 38107.0000 38183.0000 38203.0000 38219.0000 38247.0000 38399.0000 38455.0000 38479.0000 38491.0000 38523.0000 38535.0000 38583.0000 38591.0000 38627.0000 38711.0000 38735.0000 38755.0000 38775.0000 38879.0000 38927.0000 39019.0000 39063.0000 39147.0000 39283.0000 39331.0000 39383.0000 39407.0000 39447.0000 39495.0000 39567.0000 39655.0000 39659.0000 39843.0000 39903.0000 39907.0000 39943.0000 39963.0000 40103.0000 40119.0000 40191.0000 40211.0000 40263.0000 40323.0000 40335.0000 40363.0000 40375.0000 40399.0000 40439.0000 40535.0000 40551.0000 40675.0000 40703.0000 40711.0000 40727.0000 40747.0000 40963.0000 41095.0000 41147.0000 41183.0000 41231.0000 41359.0000 41367.0000 41391.0000 41447.0000 41479.0000 41499.0000 41515.0000 41551.0000 41567.0000 41699.0000 41727.0000 41751.0000 41883.0000 41895.0000 41939.0000 41951.0000 41959.0000 42015.0000 42139.0000 42219.0000 42223.0000 42351.0000 42375.0000 42419.0000 42491.0000 42719.0000 42815.0000 42875.0000 42915.0000 42923.0000 42963.0000 42967.0000 43031.0000 43043.0000 43115.0000 43239.0000 43311.0000 43347.0000 43351.0000 43367.0000 43411.0000 43467.0000 43479.0000 43483.0000 43535.0000 43815.0000 43867.0000 43903.0000 43959.0000 44003.0000 44151.0000 44159.0000 44211.0000 44219.0000 44311.0000 44331.0000 44391.0000 44487.0000 44539.0000 44627.0000 44851.0000 44899.0000 44927.0000 45039.0000 45131.0000 45135.0000 45287.0000 45339.0000 45371.0000 45395.0000 45595.0000 45611.0000 45619.0000 45715.0000 45723.0000 45727.0000 45779.0000 45823.0000 45827.0000 45859.0000 45875.0000 45887.0000 45931.0000 45963.0000 45999.0000 46031.0000 46091.0000 46115.0000 46239.0000 46291.0000 46347.0000 46351.0000 46443.0000 46491.0000 46535.0000 46623.0000 46627.0000 46683.0000 46687.0000 46715.0000 46735.0000 46803.0000 46883.0000 46887.0000 46895.0000 50003.0000 58755.0000 57135.0000 64467.0000 65415.0000 60363.0000 59571.0000 62027.0000 58735.0000 66311.0000 66307.0000 56171.0000 56167.0000 58715.0000 64427.0000 63635.0000 63627.0000 64419.0000 57991.0000 65379.0000 62795.0000 66299.0000 62791.0000 67147.0000 59639.0000 63607.0000 60315.0000 61195.0000 66395.0000 57979.0000 63571.0000 62927.0000 61283.0000 61995.0000 51767.0000 66283.0000 62911.0000 50895.0000 63555.0000 66279.0000 65331.0000 58807.0000 60439.0000 66379.0000 58791.0000 62891.0000 62079.0000 66367.0000 59611.0000 57151.0000 57147.0000 62067.0000 55215.0000 62063.0000 59607.0000 55207.0000 64491.0000 65447.0000 66347.0000 58763.0000 46955.0000 46995.0000 47015.0000 47019.0000 47043.0000 47063.0000 47191.0000 47247.0000 47263.0000 47299.0000 47311.0000 47347.0000 47355.0000 47411.0000 47419.0000 47539.0000 47575.0000 47647.0000 47759.0000 47831.0000 47951.0000 47959.0000 47971.0000 48003.0000 48039.0000 48071.0000 48115.0000 48219.0000 48255.0000 48363.0000 48379.0000 48391.0000 48411.0000 48447.0000 48455.0000 48471.0000 48551.0000 48575.0000 48627.0000 48667.0000 48791.0000 48883.0000 48903.0000 48931.0000 49099.0000 49111.0000 49155.0000 49199.0000 49299.0000 49303.0000 49311.0000 49507.0000 49523.0000 49643.0000 49671.0000 49683.0000 49767.0000 49771.0000 49863.0000 49967.0000 49991.0000 50039.0000 50047.0000 50059.0000 50063.0000 50123.0000 50139.0000 50215.0000 50311.0000 50323.0000 50331.0000 50415.0000 50435.0000 50539.0000 50595.0000 50675.0000 50735.0000 50751.0000 50795.0000 50815.0000 51007.0000 51087.0000 51191.0000 51199.0000 51243.0000 51271.0000 51275.0000 51291.0000 51323.0000 51379.0000 51527.0000 51615.0000 51691.0000 51799.0000 51815.0000 51819.0000 51843.0000 51891.0000 51919.0000 51975.0000 51999.0000 52027.0000 52115.0000 52219.0000 52391.0000 52491.0000 52671.0000 52675.0000 52827.0000 52835.0000 52923.0000 52931.0000 52939.0000 52963.0000 52995.0000 52999.0000 53027.0000 53043.0000 53107.0000 53123.0000 53131.0000 53187.0000 53191.0000 53195.0000 53363.0000 53407.0000 53423.0000 53515.0000 53535.0000 53539.0000 53571.0000 53583.0000 53595.0000 53599.0000 53703.0000 53863.0000 53883.0000 53963.0000 54119.0000 54251.0000 54267.0000 54415.0000 54483.0000 54499.0000 54519.0000 54547.0000 54599.0000 54727.0000 54755.0000 54827.0000 54895.0000 54931.0000 54935.0000 55011.0000 55015.0000 55035.0000 55039.0000 55083.0000 55143.0000 55283.0000 55399.0000 55411.0000 55443.0000 55487.0000 55543.0000 55575.0000 55623.0000 55651.0000 55703.0000 55823.0000 55919.0000 55927.0000 56031.0000 56047.0000 56071.0000 56075.0000 56103.0000 56119.0000 56135.0000 56307.0000 56375.0000 56467.0000 56535.0000 56595.0000 56599.0000 56603.0000 56731.0000 56759.0000 56779.0000 56947.0000 56991.0000 57063.0000 57183.0000 57207.0000 57395.0000 57459.0000 57487.0000 57719.0000 57787.0000 57847.0000 57891.0000 58003.0000 58091.0000 58095.0000 58099.0000 58111.0000 58143.0000 58179.0000 58331.0000 58339.0000 58379.0000 58415.0000 58471.0000 58527.0000 58539.0000 58607.0000 58647.0000 58655.0000 58819.0000 58847.0000 58875.0000 58903.0000 59035.0000 59151.0000 59167.0000 59423.0000 59435.0000 59459.0000 59667.0000 59731.0000 59747.0000 59755.0000 59791.0000 59815.0000 59923.0000 59927.0000 59935.0000 59947.0000 59983.0000 60063.0000 60107.0000 60167.0000 60231.0000 60475.0000 60495.0000 60563.0000 60623.0000 60651.0000 60671.0000 60675.0000 60843.0000 60863.0000 60875.0000 60903.0000 61039.0000 61407.0000 61411.0000 61507.0000 61543.0000 61587.0000 61607.0000 61615.0000 61627.0000 61659.0000 61675.0000 61799.0000 61847.0000 61895.0000 61899.0000 61967.0000 62139.0000 62211.0000 62295.0000 62383.0000 62419.0000 62431.0000 62447.0000 62527.0000 62535.0000 62559.0000 62599.0000 62663.0000 62675.0000 62747.0000 62755.0000 62951.0000 63071.0000 63195.0000 63251.0000 63403.0000 63427.0000 63815.0000 63855.0000 63887.0000 63911.0000 63927.0000 63995.0000 64019.0000 64059.0000 64123.0000 64163.0000 64295.0000 64587.0000 64607.0000 64683.0000 64763.0000 64803.0000 64811.0000 64819.0000 64835.0000 64903.0000 64931.0000 64939.0000 64999.0000 65051.0000 65099.0000 65143.0000 65163.0000 65167.0000 65271.0000 65535.0000 65551.0000 65579.0000 65639.0000 65767.0000 65823.0000 65879.0000 65883.0000 65915.0000 65927.0000 65935.0000 65947.0000 65975.0000 65983.0000 66003.0000 66075.0000 66111.0000 66127.0000 66155.0000 66167.0000 66179.0000 66191.0000 66215.0000 66239.0000 66243.0000 66255.0000 66419.0000 66423.0000 66439.0000 66479.0000 66523.0000 66543.0000 66551.0000 66555.0000 66559.0000 66627.0000 66659.0000 66703.0000 66707.0000 66739.0000 66767.0000 66955.0000 67087.0000 67091.0000 85919.0000 81591.0000 77295.0000 73827.0000 85903.0000 81631.0000 70815.0000 84223.0000 80735.0000 82479.0000 84167.0000 73815.0000 77263.0000 72243.0000 83323.0000 79863.0000 75543.0000 86759.0000 83315.0000 80707.0000 73803.0000 72999.0000 82459.0000 84147.0000 86743.0000 85847.0000 79827.0000 80691.0000 72223.0000 82451.0000 80683.0000 86711.0000 81543.0000 74655.0000 85023.0000 72983.0000 72219.0000 85827.0000 85823.0000 74635.0000 78979.0000 83259.0000 72215.0000 81527.0000 84099.0000 78095.0000 81515.0000 71495.0000 81503.0000 79759.0000 84975.0000 72207.0000 84967.0000 86667.0000 72203.0000 77203.0000 69351.0000 69439.0000 81479.0000 80631.0000 84063.0000 71471.0000 83231.0000 84947.0000 73731.0000 72195.0000 83227.0000 73059.0000 70135.0000 70035.0000 80611.0000 73855.0000 80603.0000 69423.0000 76311.0000 84931.0000 72179.0000 78923.0000 69415.0000 86623.0000 72275.0000 69411.0000 75575.0000 71559.0000 67979.0000 75571.0000 81451.0000 69395.0000 81447.0000 78911.0000 80583.0000 79699.0000 84911.0000 84011.0000 67267.0000 67283.0000 67555.0000 67687.0000 67715.0000 67771.0000 67779.0000 67823.0000 67887.0000 68047.0000 68059.0000 68067.0000 68179.0000 68239.0000 68247.0000 68295.0000 68375.0000 68423.0000 68451.0000 68487.0000 68511.0000 68587.0000 68607.0000 68803.0000 68807.0000 68815.0000 68875.0000 68883.0000 68911.0000 68923.0000 68939.0000 69023.0000 69059.0000 69067.0000 69119.0000 69187.0000 69199.0000 69263.0000 69267.0000 69471.0000 69479.0000 69487.0000 69491.0000 69559.0000 69587.0000 69591.0000 69651.0000 69659.0000 69719.0000 69731.0000 69831.0000 69879.0000 69903.0000 69915.0000 69943.0000 69959.0000 69995.0000 70255.0000 70279.0000 70367.0000 70379.0000 70395.0000 70467.0000 70495.0000 70519.0000 70659.0000 70683.0000 70703.0000 70751.0000 70879.0000 70911.0000 70931.0000 70959.0000 71011.0000 71059.0000 71095.0000 71139.0000 71147.0000 71171.0000 71207.0000 71267.0000 71271.0000 71307.0000 71327.0000 71367.0000 71431.0000 71459.0000 71579.0000 71607.0000 71627.0000 71699.0000 71703.0000 71707.0000 71787.0000 71799.0000 71815.0000 71847.0000 71919.0000 71931.0000 71939.0000 71947.0000 71955.0000 72047.0000 72127.0000 72131.0000 72139.0000 72307.0000 72331.0000 72379.0000 72399.0000 72419.0000 72447.0000 72479.0000 72523.0000 72539.0000 72547.0000 72567.0000 72607.0000 72627.0000 72707.0000 72715.0000 72719.0000 72751.0000 72795.0000 72827.0000 73115.0000 73151.0000 73159.0000 73183.0000 73187.0000 73219.0000 73299.0000 73359.0000 73387.0000 73395.0000 73459.0000 73571.0000 73583.0000 73595.0000 73623.0000 73683.0000 73695.0000 73707.0000 73947.0000 73999.0000 74043.0000 74051.0000 74079.0000 74099.0000 74127.0000 74151.0000 74171.0000 74259.0000 74287.0000 74367.0000 74379.0000 74419.0000 74515.0000 74551.0000 74723.0000 74755.0000 74783.0000 74839.0000 74859.0000 74891.0000 74915.0000 74955.0000 74959.0000 75031.0000 75051.0000 75075.0000 75143.0000 75171.0000 75199.0000 75267.0000 75311.0000 75339.0000 75379.0000 75383.0000 75595.0000 75631.0000 75651.0000 75683.0000 75711.0000 75719.0000 75771.0000 75811.0000 75943.0000 75971.0000 75975.0000 75987.0000 76111.0000 76207.0000 76251.0000 76255.0000 76267.0000 76459.0000 76475.0000 76515.0000 76611.0000 76623.0000 76703.0000 76719.0000 76731.0000 76739.0000 76763.0000 76779.0000 76783.0000 76795.0000 76863.0000 76875.0000 76879.0000 76915.0000 76943.0000 76959.0000 76995.0000 77059.0000 77075.0000 77135.0000 77143.0000 77315.0000 77351.0000 77383.0000 77399.0000 77451.0000 77459.0000 77515.0000 77519.0000 77527.0000 77563.0000 77607.0000 77615.0000 77619.0000 77663.0000 77691.0000 77723.0000 77727.0000 77807.0000 77863.0000 77867.0000 77883.0000 77923.0000 77967.0000 78003.0000 78027.0000 78047.0000 78239.0000 78343.0000 78395.0000 78451.0000 78495.0000 78535.0000 78543.0000 78555.0000 78563.0000 78603.0000 78615.0000 78643.0000 78707.0000 78727.0000 78783.0000 78815.0000 78819.0000 78835.0000 78867.0000 79163.0000 79191.0000 79235.0000 79271.0000 79279.0000 79383.0000 79439.0000 79471.0000 79503.0000 79511.0000 79527.0000 79575.0000 79659.0000 79667.0000 79695.0000 79911.0000 79967.0000 79995.0000 79999.0000 80051.0000 80091.0000 80143.0000 80239.0000 80243.0000 80435.0000 80475.0000 80487.0000 80551.0000 80563.0000 80799.0000 80831.0000 80843.0000 81015.0000 81035.0000 81067.0000 81075.0000 81079.0000 81119.0000 81147.0000 81175.0000 81219.0000 81231.0000 81239.0000 81243.0000 81271.0000 81335.0000 81347.0000 81351.0000 81375.0000 81379.0000 81403.0000 81735.0000 81759.0000 81835.0000 81859.0000 81919.0000 81939.0000 81999.0000 82155.0000 82167.0000 82235.0000 82279.0000 82299.0000 82335.0000 82543.0000 82583.0000 82655.0000 82699.0000 82731.0000 82763.0000 82791.0000 82875.0000 82887.0000 83019.0000 83023.0000 83031.0000 83143.0000 83155.0000 83195.0000 83415.0000 83579.0000 83623.0000 83715.0000 83743.0000 83803.0000 83827.0000 83843.0000 83859.0000 83863.0000 83867.0000 83919.0000 83987.0000 83995.0000 84295.0000 84431.0000 84435.0000 84443.0000 84447.0000 84499.0000 84507.0000 84543.0000 84555.0000 84559.0000 84607.0000 84643.0000 84667.0000 84695.0000 84699.0000 84767.0000 84803.0000 84823.0000 84863.0000 84899.0000 85095.0000 85127.0000 85171.0000 85227.0000 85251.0000 85287.0000 85379.0000 85427.0000 85479.0000 85487.0000 85495.0000 85535.0000 85563.0000 85591.0000 85607.0000 85611.0000 85663.0000 85675.0000 85955.0000 85959.0000 86035.0000 86047.0000 86067.0000 86071.0000 86103.0000 86155.0000 86203.0000 86303.0000 86315.0000 86383.0000 86467.0000 86511.0000 86519.0000 86555.0000 
         </DataArray>
    </PointData>
</Piece>
</PolyData>
</VTKFile>