<?xml version="1.0"?>
<VTKFile type="PolyData" version="1.0" byte_order="LittleEndian" header_type="UInt64">
<PolyData>
<Piece NumberOfPoints="13" NumberOfVerts="0" NumberOfLines="0" NumberOfPolys="0">
    <Points>
        <DataArray type="Float32" NumberOfComponents="3" format="ascii">
        14.5420 6.4752 6.9792 14.0346 7.8277 7.0590 14.0861 7.7717 6.6563 14.1213 8.5742 6.9640 13.8159 8.1576 7.3386 14.2905 7.0334 6.9571 13.8050 8.6374 7.2897 13.7804 8.6603 7.3125 14.6032 8.7312 6.6674 14.2129 8.4888 6.8429 14.0253 8.7001 7.2544 14.7493 8.9508 6.2892 13.7931 8.4459 7.4023 
        </DataArray>
    </Points>
    <PointData>
        <DataArray type="Float32" Name="tag" format="ascii">
            19307.0000 21911.0000 29411.0000 21751.0000 15139.0000 30607.0000 18383.0000 20847.0000 26219.0000 26923.0000 18851.0000 23767.0000 28435.0000 
         </DataArray>
    </PointData>
</Piece>
</PolyData>
</VTKFile>