<?xml version="1.0"?>
<VTKFile type="PolyData" version="1.0" byte_order="LittleEndian" header_type="UInt64">
<PolyData>
<Piece NumberOfPoints="670" NumberOfVerts="0" NumberOfLines="0" NumberOfPolys="0">
    <Points>
        <DataArray type="Float32" NumberOfComponents="3" format="ascii">
        14.6484 8.6025 4.3253 12.9515 10.2897 6.7508 13.5757 6.8415 6.2170 14.0160 3.1947 7.0634 7.3358 8.7266 5.7120 14.0633 6.4877 3.7080 14.9636 6.5254 5.0191 13.2640 9.2699 3.9502 14.6015 10.4792 0.8410 14.8524 3.8987 5.8873 14.3831 9.3528 1.1441 12.7989 13.2563 6.7157 14.3737 9.0433 1.4638 12.1550 7.3424 6.3106 11.4390 9.4855 6.2503 11.9387 9.3164 5.5315 14.2608 11.3879 3.3098 13.5267 8.1718 3.3249 13.4025 5.2296 4.9482 13.9743 5.1708 4.1690 12.2496 6.5465 5.5401 14.5819 9.6477 0.7979 14.0857 6.0065 2.8006 14.7334 6.9339 1.0852 14.2341 6.3102 4.2532 14.6771 6.6929 2.2445 11.4516 12.1560 6.8036 14.4373 7.6126 3.5962 14.2847 5.7292 5.2819 14.6075 7.4399 3.6451 14.7363 6.5134 4.1729 12.7228 12.4810 8.3940 12.8040 11.5650 8.3940 14.5327 3.6123 3.7633 14.7297 4.2903 3.2600 12.9150 11.4658 8.3940 12.9359 13.2665 8.3940 12.9215 12.4889 8.3940 14.7894 6.1193 4.1921 12.9862 12.4007 8.3940 14.1827 0.8947 6.8844 12.9090 12.3696 8.3940 13.1631 12.6425 8.3940 13.3912 11.0649 8.3940 13.1474 11.8948 8.3940 13.0918 13.1366 8.3940 13.0829 12.1900 8.3940 13.2125 13.6220 8.3940 13.2148 11.3654 8.3940 13.3321 11.3091 8.3940 13.2369 13.4062 8.3940 13.2571 12.7692 8.3940 13.3316 12.7808 8.3940 13.4061 13.0683 8.3940 13.3373 12.2368 8.3940 13.5947 10.4263 8.3940 13.2199 12.5592 8.3940 13.5665 10.6562 8.3940 13.4680 14.3224 8.3940 13.3060 12.7511 8.3940 13.4119 11.3916 8.3940 13.2650 12.8802 8.3940 13.4565 13.8716 8.3940 13.3248 13.7760 8.3940 13.3812 13.4139 8.3940 13.5741 10.6386 8.3940 13.3394 12.0867 8.3940 13.2453 13.4119 8.3940 13.3872 12.1090 8.3940 13.5164 14.2649 8.3940 13.4589 13.8872 8.3940 13.4150 13.4388 8.3940 13.3010 12.7568 8.3940 13.4614 13.4109 8.3940 14.8748 6.8502 4.4257 13.3443 13.3408 8.3940 13.4423 13.9981 8.3940 14.6724 6.2462 5.0705 13.3377 13.4038 8.3940 13.3654 11.7681 8.3940 13.3602 12.7654 8.3940 14.1378 5.6571 4.4197 14.2897 8.3149 4.2726 14.1898 6.1975 4.6910 13.7704 7.2464 5.2470 14.9433 10.6083 6.9939 13.4966 13.2162 8.3940 13.6266 11.6999 8.3940 13.4489 11.8734 8.3940 14.7252 7.2962 3.8782 13.5051 13.2221 8.3940 13.6744 11.3967 8.3940 13.4397 13.1561 8.3940 14.3146 5.4951 5.1355 13.8461 9.7963 8.3940 14.7530 6.3829 4.6718 14.8309 8.0226 3.5430 13.6331 14.3938 8.3940 13.4897 11.5264 8.3940 13.5296 11.3588 8.3940 13.4333 12.2737 8.3940 13.6348 14.0642 8.3940 13.5945 13.9940 8.3940 13.5399 13.6559 8.3940 14.3921 7.2119 4.5117 14.2460 4.1079 5.7248 13.5608 13.8481 8.3940 13.7542 10.5646 8.3940 14.1328 4.0667 5.7448 14.5113 8.4271 4.0208 13.6035 11.1776 8.3940 13.1625 6.6210 6.0962 13.5547 11.8111 8.3940 14.8257 8.7357 3.8242 13.9987 6.6635 5.2566 13.5293 12.9797 8.3940 13.9048 10.3059 8.3940 13.6158 13.5368 8.3940 13.5573 12.8146 8.3940 13.6657 11.2782 8.3940 13.6183 11.4890 8.3940 13.5501 12.1855 8.3940 13.9460 10.1190 8.3940 13.9308 14.8323 8.3940 13.2690 7.1460 5.5829 13.6277 13.4099 8.3940 13.8021 14.2795 8.3940 13.5959 12.4671 8.3940 13.6815 5.6126 6.0209 14.8939 7.7521 2.6511 13.5123 4.9790 6.4026 14.5282 8.1932 3.7367 13.7906 13.9522 8.3940 13.6905 13.0425 8.3940 13.6181 12.9166 8.3940 14.7001 9.7327 1.2192 13.7883 14.0757 8.3940 12.9703 3.9233 7.1036 13.5460 5.5868 5.6257 13.7479 12.8732 8.3940 13.7703 13.5915 8.3940 14.8420 9.3273 2.9442 13.4758 5.5913 6.3630 13.6497 12.3608 8.3940 13.7043 11.8362 8.3940 13.7566 11.1191 8.3940 13.6622 13.4094 8.3940 13.7834 8.8579 8.3940 14.0117 5.7143 5.2761 13.8506 13.6838 8.3940 13.6890 12.3383 8.3940 13.8908 10.6105 8.3940 13.7674 12.8292 8.3940 13.8160 13.8564 8.3940 13.8193 13.5263 8.3940 14.0414 14.5059 8.3940 13.7085 6.3126 5.5146 13.7663 11.2366 8.3940 13.8272 14.5309 8.3940 13.9623 10.2395 8.3940 14.6063 8.3761 3.4978 13.7284 11.0861 8.3940 13.8356 11.0008 8.3940 13.6767 7.0341 5.1547 14.4039 7.7820 3.9941 14.3103 7.6267 4.0050 13.7118 13.1658 8.3940 13.6864 11.9694 8.3940 13.6814 12.4219 8.3940 13.6994 13.0738 8.3940 13.8365 14.0870 8.3940 13.8268 11.3012 8.3940 13.8617 13.8801 8.3940 13.8934 10.7717 8.3940 13.7957 11.6123 8.3940 13.8474 14.0365 8.3940 12.3734 12.6965 3.2236 13.7621 13.3851 8.3940 14.0240 14.5351 8.3940 13.8467 13.7648 8.3940 14.0418 10.1537 8.3940 13.7622 11.9468 8.3940 14.0509 14.7221 8.3940 13.8119 13.0862 8.3940 13.8144 11.6976 8.3940 9.1338 2.0890 7.1465 13.8913 11.4332 8.3940 14.5667 7.5347 4.3759 13.6259 8.0236 4.7710 8.9434 2.6575 7.2537 12.7458 11.6870 3.4476 13.9703 9.9116 8.3940 13.5081 6.7993 6.2728 11.2904 11.2637 5.3099 14.0020 9.2449 3.5115 11.6371 10.7950 5.2374 13.9773 9.6882 8.3940 14.1197 8.1479 8.3940 13.9847 8.4936 2.2462 10.6561 8.4840 3.9445 12.4565 12.5104 3.1029 14.4819 9.1418 1.7419 11.9412 14.3388 2.2336 11.3171 10.8069 5.3573 14.0425 10.4713 8.3940 14.1708 10.7185 8.3940 12.1014 14.0855 3.9568 13.9314 10.0121 8.3940 12.3760 5.7039 4.6301 13.9809 10.0162 8.3940 8.2088 13.5442 5.9052 13.9542 9.7938 8.3940 14.0143 8.7329 8.3940 7.9199 8.2087 6.2943 13.8740 10.5294 8.3940 13.2297 14.5546 3.3680 14.7930 9.1791 2.7375 12.1830 6.3259 4.9623 14.0892 10.3128 8.3940 13.8089 12.6330 8.3940 14.2732 8.8096 1.7998 13.6876 7.9978 3.1951 14.0008 13.1051 8.3940 9.1888 10.4029 5.2596 14.0285 10.7505 8.3940 13.3348 7.8152 2.6173 10.1401 13.5326 6.3394 7.3361 13.3790 6.4498 5.3378 9.3192 7.8170 10.6832 11.0846 5.8294 12.9914 6.6451 4.3863 14.0091 11.5450 8.3940 13.3634 7.3541 3.0506 11.6935 4.7184 5.8514 14.0347 10.7042 8.3940 10.9125 5.7819 5.1263 11.3702 8.2781 5.4150 14.1102 14.5636 8.3940 14.2548 10.0360 8.3940 13.8717 10.0395 8.3940 14.0220 10.9151 8.3940 14.0235 13.9350 8.3940 14.1356 10.5093 8.3940 13.9189 13.5107 8.3940 13.3003 7.9169 2.6921 12.7174 12.2416 2.4661 14.1737 14.5770 8.3940 13.1949 10.7233 2.4626 13.9090 13.3312 8.3940 14.3011 10.0034 8.3940 14.2860 10.0706 8.3940 13.9344 11.6698 8.3940 11.6905 13.0318 5.2439 13.3718 14.2928 3.0134 14.3482 10.0638 8.3940 14.1218 10.8032 8.3940 14.1076 14.4502 8.3940 13.9554 13.3738 8.3940 13.9174 12.7337 8.3940 11.3149 10.8550 5.4635 11.8228 11.9213 3.9859 14.0784 11.2708 8.3940 11.8634 14.9759 4.3402 14.1890 14.3364 8.3940 10.9885 13.9521 7.8820 14.2247 10.2503 8.3940 12.7873 10.5574 3.2277 13.5234 14.1244 2.5690 14.2693 10.1326 8.3940 10.9073 11.7735 4.2454 14.0961 13.6884 8.3940 14.0218 10.1432 8.3940 14.0312 8.7502 8.3940 13.0770 9.7334 3.4597 11.9853 11.8903 2.6895 13.1902 11.7101 3.2119 12.3067 6.9340 6.4381 14.1726 9.4115 8.3940 14.4280 6.7549 3.5839 12.4839 0.2812 6.7285 14.0389 8.8012 8.3940 14.0780 8.3980 8.3940 12.9070 10.6837 3.9233 14.0317 9.4906 8.3940 14.1637 9.9529 8.3940 14.0217 9.4251 8.3940 13.4409 14.1662 2.7103 13.3390 8.8379 4.1385 14.1757 9.2422 8.3940 14.2210 10.7884 8.3940 14.3323 7.6733 8.3940 14.8542 7.8623 5.1208 14.9199 9.5676 3.7463 14.1876 8.9923 8.3940 14.0809 8.2717 8.3940 14.5719 10.6371 4.5335 14.0791 9.2855 8.3940 13.2686 11.5389 3.3830 14.2115 10.4773 8.3940 14.3113 10.4287 8.3940 14.1780 8.6947 8.3940 14.1022 9.6006 8.3940 14.1932 10.6359 8.3940 13.7002 6.5609 6.7290 14.1833 8.9039 8.3940 10.8073 8.2290 6.9520 8.9125 10.3119 7.0911 13.0260 7.9268 5.0398 14.1531 11.3079 8.3940 10.4201 10.7997 5.8244 14.2823 14.7132 8.3940 14.2338 10.9148 8.3940 12.7079 10.0803 3.4557 13.0933 9.2344 4.1527 14.9070 6.3514 4.6782 12.9442 14.8644 4.0880 14.3513 14.5206 8.3940 14.1740 14.3653 8.3940 14.3722 8.6205 3.4281 14.3844 7.6355 8.3940 14.2628 14.5003 8.3940 13.1136 6.6775 6.0326 13.1178 7.3415 5.4253 14.2079 13.9786 8.3940 12.3092 10.0247 4.5320 14.1620 8.2268 8.3940 14.1161 8.7786 8.3940 14.2083 8.0703 8.3940 10.4833 11.4966 5.7488 14.3966 9.9514 8.3940 14.2317 7.9794 8.3940 14.1105 9.0851 8.3940 13.7207 9.6232 4.2559 14.3813 14.6196 8.3940 9.2584 13.0437 6.9425 14.5789 10.0959 3.1581 14.2436 13.8739 8.3940 14.2179 10.4971 4.5835 14.2790 10.9074 8.3940 11.8498 14.3570 4.4276 14.9902 10.4512 4.2956 14.3785 14.6327 8.3940 14.1990 9.1748 8.3940 14.3061 9.9014 8.3940 14.2457 9.0365 8.3940 14.2488 10.1631 8.3940 14.3381 9.0397 8.3940 14.2612 9.8538 8.3940 14.2212 9.8589 8.3940 14.2510 9.1007 8.3940 11.9757 14.3395 4.7801 13.3300 0.5938 6.4182 14.4134 11.3721 8.3940 14.2772 9.1777 8.3940 14.3091 10.6377 8.3940 14.2455 8.7681 8.3940 14.3347 8.9210 8.3940 14.4176 11.0959 8.3940 14.2535 8.7678 8.3940 14.3603 8.9996 8.3940 14.3639 8.5936 8.3940 14.3653 13.9940 8.3940 14.4628 10.7481 8.3940 14.2395 8.9727 8.3940 14.7369 2.9117 5.1709 12.7880 9.4679 6.8081 14.4626 10.7716 8.3940 14.3665 10.5780 8.3940 14.6213 10.0851 3.7074 12.5599 13.0394 3.6723 14.2914 9.1227 8.3940 14.4402 10.6738 8.3940 14.2754 9.5215 8.3940 14.4888 11.3394 8.3940 14.3879 14.4019 8.3940 14.3923 9.5110 8.3940 12.7015 14.4700 3.7986 13.1097 11.6206 6.0347 12.5107 10.5424 5.2381 13.7019 9.3159 2.8914 14.2898 9.8981 8.3940 14.3150 5.6826 6.7071 14.4697 14.8441 8.3940 14.1767 5.9131 7.2125 12.5022 11.8939 5.7847 11.5579 10.3294 4.6947 14.5357 10.1307 8.3940 14.4533 14.6888 8.3940 14.3286 8.3031 8.3940 14.4477 10.5619 8.3940 14.6935 5.5908 6.3239 11.9102 10.3656 2.9962 14.5043 10.0728 8.3940 14.4376 10.8039 8.3940 14.6066 9.4176 8.3940 14.6131 9.2546 8.3940 14.4625 10.7341 8.3940 14.5064 14.8145 8.3940 14.4628 5.1038 7.0582 14.3184 9.2144 8.3940 14.5105 10.7291 8.3940 11.2951 8.2180 5.9556 14.9659 5.1552 6.3405 9.2278 4.6166 7.8774 14.4609 8.2198 8.3940 12.7895 11.8107 4.5196 13.1786 11.5830 5.8521 14.3627 5.0660 7.0067 14.5705 9.9730 8.3940 14.4891 7.9523 8.3940 14.4934 11.0256 8.3940 12.2587 13.0554 4.5284 14.8505 7.1933 4.5364 14.5470 14.5629 8.3940 14.4769 10.9440 8.3940 12.7925 14.8244 4.0840 14.5001 14.4663 8.3940 14.5284 14.5218 8.3940 14.4452 10.6698 8.3940 13.5721 11.5266 4.0703 14.6117 10.3245 8.3940 14.4793 8.4580 8.3940 11.4617 11.6764 6.5696 13.5403 10.4478 3.2914 14.4883 10.0685 8.3940 14.5789 9.9255 8.3940 14.4705 9.4096 8.3940 14.5168 9.6262 8.3940 14.5522 10.7118 8.3940 14.5451 9.2374 8.3940 14.4236 9.1818 8.3940 14.5463 8.3258 8.3940 14.4517 8.6138 8.3940 13.4978 10.4234 2.4198 14.5270 9.9527 8.3940 14.6855 11.3338 8.3940 14.5426 8.6631 8.3940 13.5983 11.0641 2.6102 14.5710 9.8031 8.3940 14.6485 11.1046 8.3940 14.4793 8.3362 8.3940 14.5888 8.4461 8.3940 13.8742 10.5520 4.4490 12.2285 11.5840 6.5154 13.2248 9.7028 4.9698 14.4897 9.0527 8.3940 14.5370 10.5364 8.3940 14.5979 7.9017 8.3940 14.4389 9.0182 8.3940 14.5474 10.5550 8.3940 14.5693 11.0283 8.3940 14.5322 8.5256 8.3940 13.8676 10.3868 4.3314 13.4905 10.3654 2.2737 13.8442 9.4202 3.2723 13.6626 8.9193 4.4513 14.6602 10.6006 3.1839 13.3996 13.4396 3.5425 14.4717 9.2972 8.3940 14.7037 9.9804 8.3940 13.6041 8.4898 5.9288 14.6623 7.7833 8.3940 9.1109 2.0652 7.7934 13.7836 12.1911 3.0435 14.5661 9.8485 8.3940 14.5823 8.1138 8.3940 13.3122 2.5455 7.7540 14.6334 7.8393 8.3940 14.6979 10.1036 8.3940 14.7544 9.3517 8.3940 13.7914 11.4341 2.4020 14.7396 10.1765 8.3940 14.5626 7.7770 8.3940 14.5917 9.2613 8.3940 14.5488 10.8624 8.3940 14.6194 10.6082 8.3940 14.5179 7.9563 8.3940 12.8001 10.0317 6.0135 11.8152 13.5691 5.6726 13.9238 12.0456 3.4128 14.5862 11.1395 8.3940 14.6113 10.4695 8.3940 14.4820 10.6177 8.3940 14.1663 13.5247 4.6741 14.5676 8.8053 8.3940 14.6020 12.9075 5.6249 11.3647 13.0307 7.2820 14.7077 9.8605 8.3940 13.4223 9.9062 5.0791 13.2527 9.0646 5.2532 14.6670 9.8233 8.3940 14.5043 9.0515 8.3940 12.7883 8.6377 6.3422 11.1811 9.0358 7.7154 12.7910 8.1962 6.6318 14.5446 10.8184 8.3940 14.5994 14.7879 8.3940 14.8934 5.4184 6.0425 14.2276 9.2502 3.5012 11.7652 12.4804 6.2172 13.6876 9.6476 3.2380 14.7260 14.7337 8.3940 13.6528 10.6773 3.8741 13.1073 11.8151 5.7426 14.6109 10.3693 8.3940 13.4745 12.3667 6.3376 14.5257 13.1402 4.8698 14.7817 9.2908 8.3940 12.6692 9.4320 6.0588 13.0332 9.7150 5.8650 13.1725 9.4185 5.0665 14.7702 9.5537 8.3940 14.5880 8.9855 8.3940 13.8418 8.7694 4.5324 12.6863 8.6035 6.5747 14.7286 10.1242 8.3940 14.6909 9.3943 5.3252 14.6781 7.9241 8.3940 14.7251 12.2057 8.3940 14.6215 8.9916 8.3940 14.7509 10.0733 8.3940 14.6467 9.6518 8.3940 14.8785 3.1590 5.8683 14.6719 9.0798 8.3940 14.7536 9.0716 8.3940 14.7611 8.5082 8.3940 14.7064 9.7033 8.3940 14.7766 9.4707 8.3940 14.6782 9.3869 8.3940 14.7335 9.1974 8.3940 14.6285 8.7929 8.3940 14.7352 10.8284 8.3940 14.7936 10.0185 8.3940 14.7193 10.6655 8.3940 14.7181 8.4458 8.3940 14.7819 9.6165 8.3940 14.8254 12.7039 5.0256 14.7487 11.0413 8.3940 14.7773 11.0663 8.3940 14.7686 8.6579 8.3940 14.7205 13.5122 5.1640 14.7775 10.1993 8.3940 14.7528 8.2834 8.3940 13.7779 7.5870 6.7281 14.3795 8.0019 7.2012 14.1829 8.4708 6.8846 14.7433 11.0385 8.3940 14.7668 9.2829 8.3940 14.7814 8.6242 8.3940 14.8024 8.2743 8.3940 12.4313 7.3877 7.3370 14.8162 10.8771 8.3940 14.7917 7.9261 8.3940 14.7634 9.8917 8.3940 14.7094 9.1029 8.3940 14.7866 7.9696 8.3940 13.8241 9.7727 7.0187 14.4521 7.8280 6.2111 14.7283 9.2562 8.3940 14.6819 8.9555 8.3940 14.7972 10.7976 8.3940 14.7277 9.0270 8.3940 14.7317 8.9810 8.3940 14.7496 10.6758 8.3940 14.7518 12.8227 8.3940 13.9055 9.8420 6.2324 14.7145 10.7286 8.3940 14.8877 12.7768 7.2631 14.3947 8.5214 6.7034 14.0503 9.3433 6.3275 14.7909 7.7830 8.3940 14.8116 10.7114 8.3940 14.8038 10.6324 8.3940 13.8985 9.8763 6.2827 14.3218 9.4320 6.8695 14.7615 12.4099 4.4909 14.8543 8.9467 4.8215 14.8325 8.3511 8.3940 13.9356 8.3285 5.2790 14.4085 8.5357 5.0886 14.7585 8.8264 8.3940 14.8115 11.0259 8.3940 14.6117 7.9286 5.9251 14.7873 13.3997 8.3940 14.6444 8.8206 8.3940 13.1371 14.7037 6.4626 14.6486 9.8680 8.3940 14.8541 7.3116 8.3940 14.4768 9.4732 4.3028 14.8374 9.5929 8.3940 14.6494 9.9912 8.3940 14.7216 9.2406 8.3940 14.7629 7.7643 8.3940 14.7517 8.8057 8.3940 13.6255 10.3215 6.2764 14.7753 10.9574 8.3940 12.4982 7.6344 7.2279 14.2231 7.6649 6.0404 13.9055 10.1086 6.0656 14.4624 9.4215 6.1138 14.3839 7.7102 6.0527 14.3166 6.2440 7.8444 14.1526 10.8291 6.9104 14.6174 9.4659 8.3940 12.6035 5.7415 7.8062 11.0337 7.5851 7.7106 14.7240 8.8583 8.3940 13.7569 10.4390 7.1591 14.8454 9.9172 8.3940 14.7974 9.7689 8.3940 13.7964 10.0757 6.4548 14.8276 5.6799 5.9807 14.8954 9.3740 8.3940 13.7363 7.5531 7.5679 13.9145 8.9028 6.7473 13.8881 11.0766 6.9472 12.8701 5.9126 7.7809 11.9474 14.8412 6.1379 14.6345 9.1123 8.3940 14.6487 9.5164 8.3940 14.2497 8.4046 5.0194 14.7155 12.5287 8.3940 14.6686 9.4949 8.3940 13.9241 7.4544 6.4709 14.6192 12.8168 4.1247 14.7141 12.2005 8.3940 13.2425 10.1047 7.4531 13.8989 10.3506 6.0362 13.9454 10.5072 6.1673 14.0429 8.9835 6.5712 14.0662 10.3014 6.8068 14.0156 9.1260 6.6722 14.0547 9.9917 6.1404 14.0057 7.8538 6.4591 13.9041 9.3458 6.7084 14.0644 10.0511 6.1966 14.4087 8.5659 6.6153 13.3656 9.5848 7.0066 13.4290 9.7160 6.9051 13.7651 9.2999 6.8962 13.8878 10.4274 6.5072 14.3695 8.8128 6.4131 14.3713 10.4918 3.6685 14.4105 7.8549 6.5592 14.4059 7.6595 6.6865 14.5785 9.3317 5.9711 14.5640 11.4264 7.4979 14.8039 10.3083 8.3940 14.7903 8.7081 8.3940 13.9628 11.0215 7.0282 14.4739 9.3089 6.2786 14.3696 7.3941 7.0124 13.4442 9.7820 6.7675 13.3345 8.9821 7.5358 14.5044 7.8720 5.9521 14.3155 8.7310 6.8486 14.5288 8.5852 6.8103 12.9132 10.3000 7.2933 12.8413 9.9786 7.3616 14.1042 10.5125 7.2939 14.7956 9.5911 8.3940 13.5952 9.3447 7.0649 14.2693 8.7929 6.7566 12.8556 10.0282 7.3583 14.4894 9.3132 6.7048 14.3247 7.2281 6.6805 14.8662 10.3387 8.3940 14.8543 7.4859 8.3940 12.0528 12.0591 7.8444 14.8423 10.8261 8.3940 
        </DataArray>
    </Points>
    <PointData>
        <DataArray type="Float32" Name="tag" format="ascii">
            83247.0000 84467.0000 81067.0000 81147.0000 89763.0000 92787.0000 136783.0000 160427.0000 171079.0000 147207.0000 174479.0000 158219.0000 165831.0000 163851.0000 151143.0000 158659.0000 160523.0000 166163.0000 162731.0000 154219.0000 171367.0000 171795.0000 170991.0000 156719.0000 184647.0000 157191.0000 76783.0000 227819.0000 208503.0000 216539.0000 208675.0000 63887.0000 58819.0000 224175.0000 221867.0000 73151.0000 76515.0000 92403.0000 223563.0000 87739.0000 213879.0000 66419.0000 96747.0000 84295.0000 98671.0000 98675.0000 92515.0000 100251.0000 97927.0000 94639.0000 105807.0000 109275.0000 124015.0000 130603.0000 104843.0000 94643.0000 117891.0000 98599.0000 84435.0000 123175.0000 96695.0000 98719.0000 80843.0000 109151.0000 117415.0000 95339.0000 124887.0000 96635.0000 130819.0000 99323.0000 102995.0000 121203.0000 98767.0000 124807.0000 363311.0000 112811.0000 80051.0000 359831.0000 95947.0000 121187.0000 112571.0000 369999.0000 397543.0000 388547.0000 394055.0000 341599.0000 138547.0000 147219.0000 136007.0000 372359.0000 109855.0000 141763.0000 103175.0000 372019.0000 65579.0000 368863.0000 349423.0000 104059.0000 125051.0000 124743.0000 140103.0000 95427.0000 122635.0000 130495.0000 382559.0000 387071.0000 112767.0000 73947.0000 383191.0000 396151.0000 103959.0000 390951.0000 143759.0000 390563.0000 393011.0000 119659.0000 100427.0000 111503.0000 134067.0000 139367.0000 144255.0000 118179.0000 96755.0000 104915.0000 402635.0000 112759.0000 96055.0000 129687.0000 397899.0000 388751.0000 401079.0000 404531.0000 142535.0000 151983.0000 149983.0000 459367.0000 134055.0000 406259.0000 413071.0000 155663.0000 140123.0000 456119.0000 409499.0000 148271.0000 151963.0000 114991.0000 120183.0000 175551.0000 418071.0000 143511.0000 137903.0000 93151.0000 147015.0000 116419.0000 157411.0000 109911.0000 396427.0000 127395.0000 90899.0000 104763.0000 397415.0000 120599.0000 136479.0000 404987.0000 396271.0000 405951.0000 133555.0000 139647.0000 140515.0000 129891.0000 134283.0000 149959.0000 122731.0000 118719.0000 127175.0000 124199.0000 406599.0000 140323.0000 110691.0000 121127.0000 104047.0000 140571.0000 86863.0000 158663.0000 147059.0000 461515.0000 149283.0000 404863.0000 458143.0000 462875.0000 480591.0000 212443.0000 454487.0000 489635.0000 486171.0000 493335.0000 178799.0000 176779.0000 462803.0000 462807.0000 474231.0000 461047.0000 466147.0000 487935.0000 175399.0000 150867.0000 466163.0000 200639.0000 470991.0000 177063.0000 471051.0000 201871.0000 170299.0000 466379.0000 172119.0000 488151.0000 463319.0000 464839.0000 93959.0000 152631.0000 464651.0000 466311.0000 158603.0000 468187.0000 145315.0000 467739.0000 468283.0000 475931.0000 491815.0000 489983.0000 468011.0000 152667.0000 469675.0000 469703.0000 132211.0000 471227.0000 472971.0000 138895.0000 90331.0000 185335.0000 152223.0000 136935.0000 104943.0000 146211.0000 471463.0000 474667.0000 118115.0000 472931.0000 156531.0000 98615.0000 99611.0000 151079.0000 484591.0000 492115.0000 112751.0000 118079.0000 137727.0000 146419.0000 156699.0000 486695.0000 486387.0000 152595.0000 481103.0000 138007.0000 241731.0000 136431.0000 490535.0000 490411.0000 117967.0000 494015.0000 152003.0000 206479.0000 225831.0000 493219.0000 489719.0000 491531.0000 499907.0000 265939.0000 460427.0000 505235.0000 217195.0000 191475.0000 498711.0000 242271.0000 245175.0000 204775.0000 489783.0000 494975.0000 245259.0000 196243.0000 163103.0000 451055.0000 491699.0000 233475.0000 168619.0000 496863.0000 180279.0000 491615.0000 165171.0000 125655.0000 224419.0000 207735.0000 177091.0000 498739.0000 218479.0000 493475.0000 497039.0000 498795.0000 158527.0000 500151.0000 114039.0000 164759.0000 499207.0000 495675.0000 421971.0000 495443.0000 128795.0000 147383.0000 490551.0000 168611.0000 123159.0000 497343.0000 503003.0000 153963.0000 501563.0000 165207.0000 172219.0000 199087.0000 318695.0000 123215.0000 178635.0000 180447.0000 493679.0000 124179.0000 325871.0000 490243.0000 153735.0000 507235.0000 152863.0000 416703.0000 505995.0000 146107.0000 210983.0000 251211.0000 234919.0000 245351.0000 266215.0000 228535.0000 218611.0000 211107.0000 493191.0000 510019.0000 178583.0000 245311.0000 194599.0000 257799.0000 248247.0000 162935.0000 245267.0000 252787.0000 241827.0000 154707.0000 252995.0000 272179.0000 503875.0000 337091.0000 248191.0000 132555.0000 497143.0000 566931.0000 218635.0000 199195.0000 285039.0000 176775.0000 143375.0000 298119.0000 561527.0000 489823.0000 563359.0000 539203.0000 217019.0000 513779.0000 142727.0000 507075.0000 567099.0000 537879.0000 109191.0000 142091.0000 191703.0000 160415.0000 518763.0000 528675.0000 118779.0000 145431.0000 96019.0000 69487.0000 142631.0000 120551.0000 528595.0000 290971.0000 160095.0000 565919.0000 527103.0000 570563.0000 187111.0000 557759.0000 492255.0000 531899.0000 120331.0000 208055.0000 208099.0000 558463.0000 537779.0000 135987.0000 180319.0000 569003.0000 149003.0000 141643.0000 199099.0000 575627.0000 148199.0000 255811.0000 571835.0000 580007.0000 283359.0000 266099.0000 271931.0000 303447.0000 262383.0000 273919.0000 292615.0000 262823.0000 284883.0000 578423.0000 264343.0000 187079.0000 298075.0000 580015.0000 267667.0000 242047.0000 264395.0000 246747.0000 361591.0000 585059.0000 592575.0000 256095.0000 214211.0000 231487.0000 255927.0000 233387.0000 214175.0000 241883.0000 565479.0000 575111.0000 586943.0000 592567.0000 557891.0000 538971.0000 322379.0000 134991.0000 588667.0000 173703.0000 316671.0000 565211.0000 300283.0000 209483.0000 321215.0000 175251.0000 113483.0000 96555.0000 576787.0000 157471.0000 209519.0000 312359.0000 207959.0000 148995.0000 191415.0000 594955.0000 568855.0000 568771.0000 180287.0000 234879.0000 203611.0000 552399.0000 304155.0000 562019.0000 580475.0000 101199.0000 593127.0000 594855.0000 91771.0000 284755.0000 594931.0000 587447.0000 599263.0000 155491.0000 153851.0000 523211.0000 595395.0000 569279.0000 593211.0000 135999.0000 577107.0000 583883.0000 129071.0000 570863.0000 533435.0000 63911.0000 593271.0000 587195.0000 592915.0000 103955.0000 294679.0000 593335.0000 601359.0000 128979.0000 588799.0000 242227.0000 390195.0000 286375.0000 340903.0000 312591.0000 501111.0000 349083.0000 320675.0000 334943.0000 357991.0000 327571.0000 330643.0000 300199.0000 277331.0000 266251.0000 319103.0000 290663.0000 264535.0000 326231.0000 561535.0000 248439.0000 270099.0000 319055.0000 575175.0000 309115.0000 303239.0000 604415.0000 651403.0000 651467.0000 239051.0000 317787.0000 317455.0000 315759.0000 600395.0000 288663.0000 240703.0000 307675.0000 296163.0000 219995.0000 659767.0000 612331.0000 317155.0000 327931.0000 277051.0000 296239.0000 295799.0000 248351.0000 341611.0000 645255.0000 228595.0000 581687.0000 650079.0000 654267.0000 233247.0000 255835.0000 160491.0000 659731.0000 653003.0000 576775.0000 601719.0000 305851.0000 602627.0000 602383.0000 294603.0000 212455.0000 612523.0000 307955.0000 340963.0000 580607.0000 348827.0000 185047.0000 595443.0000 113603.0000 333671.0000 369283.0000 204887.0000 330923.0000 631307.0000 289047.0000 606679.0000 610515.0000 644267.0000 648751.0000 612531.0000 598783.0000 643039.0000 290283.0000 604755.0000 593351.0000 354691.0000 661391.0000 109791.0000 94655.0000 655879.0000 526015.0000 96643.0000 635063.0000 632859.0000 654507.0000 604859.0000 589107.0000 329539.0000 358415.0000 601303.0000 352199.0000 357215.0000 600627.0000 527147.0000 346335.0000 593075.0000 640875.0000 646679.0000 602799.0000 619887.0000 651851.0000 644371.0000 606983.0000 654639.0000 649043.0000 651751.0000 660107.0000 660035.0000 658619.0000 654663.0000 633991.0000 72379.0000 597235.0000 592551.0000 609007.0000 432547.0000 339619.0000 358295.0000 651759.0000 604699.0000 621919.0000 663079.0000 660287.0000 605055.0000 654835.0000 648011.0000 664515.0000 663003.0000 655987.0000 373407.0000 658751.0000 654843.0000 663095.0000 647863.0000 623295.0000 143539.0000 196363.0000 632419.0000 311171.0000 
         </DataArray>
    </PointData>
</Piece>
</PolyData>
</VTKFile>