<?xml version="1.0"?>
<VTKFile type="RectilinearGrid" version="1.0" byte_order="LittleEndian" header_type="UInt64">
<RectilinearGrid WholeExtent="25 50 0 25 0 15">
<Piece Extent="25 50 0 25 0 15">
<Coordinates>
<DataArray type="Float64" Name="Array X-Axis" format="ascii" RangeMin="15.0" RangeMax="30.0">
15.0 15.6 16.2 16.8 17.4 18.0 18.6 19.2 19.8 20.4 21.0 21.6 22.2 22.8 23.4 24.0 24.6 25.2 25.8 26.4 27.0 27.6 28.2 28.8 29.4 30.0 
</DataArray>
<DataArray type="Float64" Name="Array Y-Axis" format="ascii" RangeMin="0.0" RangeMax="15.0">
0.0 0.6 1.2 1.8 2.4 3.0 3.6 4.2 4.8 5.4 6.0 6.6 7.2 7.8 8.4 9.0 9.6 10.2 10.8 11.4 12.0 12.6 13.2 13.8 14.4 15.0 
</DataArray>
<DataArray type="Float64" Name="Array Z-Axis" format="ascii" RangeMin="0.0" RangeMax="9.0">
0.0 0.6 1.2 1.8 2.4 3.0 3.6 4.2 4.8 5.4 6.0 6.6 7.2 7.8 8.4 9.0 
</DataArray>
</Coordinates>
<PointData>
<DataArray Name="TEMPERATURE" NumberOfComponents="1" type="Float64" format="ascii">
20.1 20.1 20.1 20.1 20.1 20.1 20.1 20.1 20.1 20.1 20.1 20.1 20.1 20.0 20.0 20.0 20.0 20.0 20.0 20.0 20.0 20.0 20.0 20.0 20.0 20.0 20.1 20.1 20.1 20.1 20.1 20.1 20.1 20.2 20.2 20.2 20.1 20.1 20.1 20.1 20.1 20.1 20.1 20.1 20.1 20.1 20.1 20.1 20.1 20.0 20.0 20.0 20.2 20.2 20.2 20.2 20.2 20.2 20.3 20.3 20.3 20.3 20.2 20.2 20.2 20.2 20.2 20.1 20.1 20.1 20.1 20.1 20.1 20.1 20.1 20.1 20.0 20.0 20.2 20.3 20.3 20.3 20.3 20.3 20.4 20.4 20.4 20.4 20.3 20.3 20.3 20.2 20.2 20.2 20.2 20.2 20.2 20.2 20.2 20.2 20.1 20.1 20.1 20.0 20.3 20.3 20.4 20.5 20.5 20.5 20.5 20.5 20.5 20.5 20.4 20.4 20.3 20.3 20.3 20.3 20.3 20.3 20.3 20.3 20.2 20.2 20.2 20.1 20.1 20.0 20.4 20.4 20.5 20.5 20.6 20.6 20.6 20.6 20.6 20.6 20.5 20.5 20.5 20.5 20.4 20.4 20.4 20.4 20.4 20.4 20.3 20.3 20.2 20.1 20.1 20.0 20.5 20.5 20.6 20.6 20.7 20.8 20.8 20.8 20.8 20.7 20.7 20.6 20.6 20.6 20.5 20.5 20.5 20.5 20.5 20.4 20.4 20.3 20.2 20.1 20.1 20.0 20.6 20.6 20.7 20.8 20.9 21.0 21.0 21.0 20.9 20.9 20.8 20.7 20.7 20.7 20.7 20.6 20.6 20.6 20.6 20.5 20.4 20.3 20.2 20.2 20.1 20.0 20.7 20.8 20.8 20.9 21.0 21.2 21.2 21.2 21.1 21.0 20.9 20.9 20.9 20.8 20.8 20.8 20.7 20.7 20.6 20.5 20.4 20.3 20.3 20.2 20.1 20.0 20.9 20.9 21.0 21.1 21.2 21.3 21.4 21.4 21.4 21.3 21.2 21.1 21.0 21.0 20.9 20.9 20.9 20.8 20.6 20.5 20.4 20.4 20.3 20.2 20.1 20.1 21.0 21.1 21.2 21.3 21.4 21.5 21.6 21.7 21.6 21.6 21.4 21.3 21.2 21.1 21.1 21.1 21.0 20.8 20.7 20.6 20.5 20.4 20.3 20.2 20.1 20.1 21.2 21.3 21.4 21.5 21.7 21.8 21.8 21.9 21.9 21.8 21.7 21.5 21.4 21.4 21.3 21.2 21.0 20.9 20.7 20.6 20.5 20.4 20.3 20.2 20.1 20.1 21.4 21.5 21.6 21.8 21.9 22.1 22.2 22.2 22.2 22.2 22.0 21.7 21.7 21.6 21.5 21.3 21.1 20.9 20.8 20.7 20.6 20.5 20.4 20.2 20.1 20.1 21.6 21.7 21.9 22.1 22.3 22.5 22.6 22.6 22.6 22.4 22.2 22.0 22.0 21.8 21.6 21.4 21.2 21.0 20.9 20.8 20.6 20.5 20.4 20.3 20.1 20.1 21.9 22.1 22.3 22.5 22.7 23.1 23.2 23.1 23.0 22.8 22.6 22.4 22.2 22.0 21.7 21.5 21.3 21.1 21.0 20.8 20.7 20.6 20.4 20.3 20.1 20.1 22.2 22.4 22.6 22.9 23.2 23.7 23.9 23.8 23.6 23.3 23.2 22.8 22.5 22.2 21.9 21.6 21.4 21.2 21.1 20.9 20.8 20.6 20.5 20.3 20.1 20.1 22.5 22.7 23.1 23.6 24.2 24.6 24.7 24.6 24.3 24.0 23.7 23.2 22.7 22.4 22.1 21.8 21.6 21.4 21.2 21.1 20.8 20.6 20.5 20.3 20.1 20.1 22.9 23.2 23.7 24.4 25.3 25.9 26.0 25.9 25.5 24.9 24.2 23.6 23.0 22.6 22.4 22.2 21.9 21.7 21.4 21.1 20.8 20.6 20.5 20.3 20.2 20.1 23.4 23.8 24.4 25.3 27.0 29.9 30.0 27.8 26.8 25.7 24.7 24.0 23.5 23.1 22.8 22.4 22.1 21.7 21.4 21.1 20.9 20.7 20.5 20.4 20.2 20.1 24.0 24.5 25.3 27.4 34.4 56.3 61.2 41.7 31.1 27.0 25.5 25.0 24.4 23.6 23.0 22.5 22.1 21.7 21.5 21.3 21.1 20.9 20.6 20.4 20.3 20.2 24.9 25.7 27.2 30.7 38.7 79.4 89.4 48.6 33.9 28.4 26.7 26.0 24.9 23.9 23.2 22.7 22.2 21.8 21.6 21.4 21.1 20.9 20.7 20.5 20.3 20.2 26.0 27.2 29.1 32.4 34.5 20.0 20.0 36.1 33.1 29.0 27.3 26.1 24.9 24.0 23.3 22.7 22.2 21.8 21.5 21.3 21.0 20.8 20.6 20.4 20.3 20.2 26.3 27.5 29.1 31.9 33.7 20.0 20.0 37.3 33.8 29.1 27.0 25.5 24.6 23.8 23.1 22.5 22.2 21.8 21.5 21.2 21.0 20.8 20.6 20.4 20.2 20.1 25.6 26.5 27.6 30.5 33.6 42.1 50.4 41.8 32.6 27.6 25.9 24.8 23.9 23.3 22.7 22.3 22.0 21.7 21.4 21.2 20.9 20.8 20.6 20.4 20.2 20.1 24.6 25.3 26.3 28.6 33.0 40.0 43.5 37.2 28.8 25.8 24.9 24.1 23.4 22.9 22.4 22.1 21.7 21.5 21.3 21.0 20.9 20.7 20.5 20.4 20.2 20.1 23.1 24.6 25.4 26.6 29.4 33.2 33.4 29.5 25.9 24.7 24.1 23.5 23.0 22.5 22.2 21.8 21.5 21.3 21.1 20.9 20.7 20.6 20.5 20.3 20.2 20.1 20.0 20.1 20.1 20.0 20.1 20.1 20.1 20.1 20.1 20.1 20.1 20.1 20.0 20.0 20.0 20.0 20.0 20.0 20.0 20.0 20.0 20.0 20.0 20.0 20.0 20.0 20.1 20.1 20.1 20.1 20.1 20.1 20.1 20.1 20.1 20.1 20.1 20.1 20.1 20.1 20.1 20.1 20.1 20.1 20.1 20.1 20.1 20.1 20.0 20.0 20.0 20.0 20.2 20.2 20.2 20.2 20.2 20.2 20.2 20.2 20.2 20.2 20.2 20.2 20.2 20.2 20.2 20.1 20.1 20.1 20.1 20.1 20.1 20.1 20.1 20.1 20.0 20.0 20.2 20.2 20.3 20.3 20.3 20.3 20.4 20.4 20.4 20.3 20.3 20.3 20.3 20.2 20.2 20.2 20.2 20.2 20.2 20.2 20.2 20.1 20.1 20.1 20.0 20.0 20.3 20.3 20.4 20.4 20.5 20.5 20.5 20.5 20.5 20.5 20.4 20.4 20.3 20.3 20.3 20.3 20.3 20.3 20.3 20.2 20.2 20.2 20.1 20.1 20.1 20.0 20.4 20.4 20.5 20.5 20.6 20.6 20.6 20.6 20.6 20.6 20.5 20.5 20.4 20.4 20.4 20.4 20.4 20.4 20.3 20.3 20.3 20.2 20.2 20.1 20.1 20.0 20.5 20.5 20.6 20.7 20.8 20.8 20.8 20.8 20.8 20.7 20.6 20.6 20.6 20.5 20.5 20.5 20.5 20.5 20.4 20.4 20.3 20.3 20.2 20.1 20.1 20.0 20.6 20.6 20.7 20.8 20.9 21.0 21.0 21.0 20.9 20.9 20.8 20.7 20.7 20.7 20.6 20.6 20.6 20.6 20.5 20.4 20.3 20.3 20.2 20.1 20.1 20.0 20.7 20.8 20.8 20.9 21.1 21.2 21.2 21.2 21.1 21.0 20.9 20.9 20.8 20.8 20.8 20.7 20.7 20.7 20.6 20.5 20.4 20.3 20.2 20.2 20.1 20.0 20.8 20.9 21.0 21.1 21.2 21.3 21.4 21.4 21.4 21.3 21.2 21.0 21.0 20.9 20.9 20.9 20.8 20.8 20.6 20.5 20.4 20.3 20.3 20.2 20.1 20.1 21.0 21.1 21.2 21.3 21.4 21.5 21.6 21.7 21.6 21.5 21.4 21.3 21.2 21.1 21.1 21.1 21.0 20.8 20.7 20.5 20.5 20.4 20.3 20.2 20.1 20.1 21.2 21.3 21.4 21.5 21.7 21.8 21.9 22.0 21.9 21.8 21.7 21.5 21.4 21.4 21.3 21.2 21.0 20.8 20.7 20.6 20.5 20.4 20.3 20.2 20.1 20.1 21.4 21.5 21.6 21.8 22.0 22.2 22.3 22.3 22.3 22.1 21.9 21.7 21.7 21.6 21.5 21.3 21.1 20.9 20.8 20.7 20.6 20.4 20.3 20.2 20.1 20.1 21.6 21.8 21.9 22.1 22.4 22.6 22.8 22.8 22.6 22.4 22.2 22.1 22.0 21.8 21.6 21.4 21.2 21.0 20.9 20.7 20.6 20.5 20.4 20.2 20.1 20.1 21.9 22.1 22.3 22.5 22.8 23.2 23.4 23.3 23.1 22.9 22.7 22.5 22.3 22.0 21.7 21.5 21.3 21.1 20.9 20.8 20.7 20.5 20.4 20.2 20.1 20.1 22.2 22.4 22.7 23.0 23.4 23.8 24.1 24.1 23.7 23.4 23.2 22.9 22.5 22.2 21.9 21.6 21.4 21.2 21.0 20.9 20.7 20.6 20.4 20.3 20.1 20.1 22.6 22.8 23.2 23.7 24.4 25.1 25.5 25.1 24.5 24.1 23.8 23.3 22.8 22.4 22.1 21.8 21.6 21.4 21.2 21.0 20.8 20.6 20.5 20.3 20.1 20.1 23.0 23.4 23.8 24.6 25.6 26.9 27.9 27.4 26.0 25.0 24.3 23.7 23.1 22.7 22.4 22.2 21.9 21.6 21.3 21.0 20.8 20.6 20.4 20.3 20.2 20.1 23.6 24.0 24.6 25.7 28.1 31.8 33.0 30.8 28.0 25.8 24.9 24.2 23.6 23.1 22.8 22.4 22.1 21.7 21.4 21.1 20.9 20.7 20.5 20.4 20.2 20.1 24.2 24.7 25.6 28.5 39.4 65.4 66.3 42.4 31.7 27.2 25.7 25.2 24.5 23.7 23.1 22.6 22.2 21.7 21.4 21.2 21.0 20.8 20.6 20.4 20.2 20.1 25.1 26.3 28.7 33.6 68.1 181.9 180.2 68.9 35.5 28.7 27.0 26.2 25.2 24.1 23.3 22.8 22.3 21.8 21.5 21.3 21.1 20.9 20.7 20.4 20.2 20.1 26.3 28.0 31.4 36.6 95.9 358.8 356.0 97.2 37.8 29.9 27.8 26.5 25.2 24.2 23.4 22.8 22.3 21.9 21.5 21.3 21.0 20.8 20.6 20.4 20.2 20.1 27.1 28.3 30.4 37.1 100.3 353.2 349.9 99.8 38.3 30.2 27.5 26.0 24.8 23.9 23.2 22.6 22.2 21.9 21.5 21.2 21.0 20.8 20.5 20.3 20.2 20.1 26.4 27.3 28.4 35.7 67.7 150.7 151.5 67.5 35.4 28.7 26.5 25.2 24.2 23.4 22.9 22.4 22.1 21.7 21.4 21.2 20.9 20.7 20.5 20.4 20.2 20.1 24.9 25.7 26.7 30.8 37.1 47.7 50.1 39.2 30.5 26.6 25.4 24.4 23.6 23.0 22.5 22.1 21.8 21.5 21.3 21.0 20.8 20.7 20.5 20.4 20.2 20.1 23.2 24.8 25.7 27.1 30.7 38.4 38.9 31.2 26.8 25.2 24.4 23.7 23.1 22.7 22.2 21.9 21.6 21.3 21.1 20.9 20.7 20.6 20.4 20.3 20.2 20.1 20.0 20.0 20.0 20.0 20.0 20.1 20.0 20.0 20.0 20.0 20.0 20.0 20.0 20.0 20.0 20.0 20.0 20.0 20.0 20.0 20.0 20.0 20.0 20.0 20.0 20.0 20.1 20.1 20.1 20.1 20.1 20.1 20.1 20.1 20.1 20.1 20.1 20.1 20.1 20.1 20.1 20.1 20.1 20.1 20.1 20.0 20.0 20.0 20.0 20.0 20.0 20.0 20.1 20.1 20.2 20.2 20.2 20.2 20.2 20.2 20.2 20.2 20.2 20.2 20.2 20.1 20.1 20.1 20.1 20.1 20.1 20.1 20.1 20.1 20.1 20.1 20.0 20.0 20.2 20.2 20.3 20.3 20.3 20.3 20.3 20.3 20.3 20.3 20.3 20.3 20.2 20.2 20.2 20.2 20.2 20.2 20.2 20.1 20.1 20.1 20.1 20.1 20.0 20.0 20.3 20.3 20.4 20.4 20.4 20.5 20.5 20.4 20.4 20.4 20.4 20.3 20.3 20.3 20.3 20.3 20.3 20.2 20.2 20.2 20.2 20.2 20.1 20.1 20.0 20.0 20.4 20.4 20.5 20.5 20.6 20.6 20.6 20.6 20.6 20.6 20.5 20.4 20.4 20.4 20.4 20.4 20.3 20.3 20.3 20.3 20.3 20.2 20.1 20.1 20.0 20.0 20.5 20.5 20.6 20.7 20.8 20.8 20.8 20.8 20.7 20.7 20.6 20.6 20.5 20.5 20.5 20.4 20.4 20.4 20.4 20.4 20.3 20.2 20.2 20.1 20.1 20.0 20.6 20.6 20.7 20.8 20.9 21.0 21.0 21.0 20.9 20.8 20.8 20.7 20.6 20.6 20.6 20.5 20.5 20.5 20.5 20.4 20.3 20.2 20.2 20.1 20.1 20.0 20.7 20.8 20.8 20.9 21.0 21.1 21.2 21.2 21.1 21.0 20.9 20.8 20.8 20.7 20.7 20.7 20.6 20.6 20.5 20.4 20.3 20.2 20.2 20.1 20.1 20.0 20.8 20.9 21.0 21.1 21.2 21.3 21.4 21.5 21.4 21.2 21.1 21.0 20.9 20.9 20.8 20.8 20.8 20.7 20.6 20.4 20.4 20.3 20.2 20.1 20.1 20.0 21.0 21.1 21.2 21.3 21.4 21.5 21.7 21.7 21.6 21.5 21.3 21.2 21.1 21.1 21.1 21.0 20.9 20.8 20.6 20.5 20.4 20.3 20.2 20.2 20.1 20.0 21.2 21.3 21.4 21.6 21.7 21.8 22.0 22.1 22.0 21.8 21.6 21.4 21.4 21.4 21.3 21.2 21.0 20.8 20.7 20.5 20.4 20.4 20.3 20.2 20.1 20.0 21.4 21.5 21.7 21.9 22.1 22.3 22.5 22.5 22.3 22.1 21.9 21.7 21.7 21.6 21.5 21.2 21.0 20.9 20.7 20.6 20.5 20.4 20.3 20.2 20.1 20.0 21.6 21.8 22.0 22.2 22.5 22.8 23.1 23.0 22.7 22.4 22.3 22.1 22.0 21.8 21.6 21.3 21.1 21.0 20.8 20.7 20.5 20.4 20.3 20.2 20.1 20.0 21.9 22.2 22.4 22.7 23.0 23.4 23.7 23.6 23.3 23.0 22.8 22.6 22.3 22.0 21.7 21.4 21.2 21.1 20.9 20.7 20.6 20.5 20.3 20.2 20.1 20.0 22.3 22.6 22.9 23.3 23.8 24.3 24.7 24.6 24.0 23.6 23.4 23.0 22.6 22.2 21.9 21.6 21.4 21.1 21.0 20.8 20.7 20.5 20.4 20.2 20.1 20.1 22.7 23.0 23.5 24.1 24.9 26.3 28.2 27.2 25.0 24.3 24.0 23.5 22.9 22.4 22.1 21.8 21.5 21.3 21.1 20.9 20.7 20.5 20.4 20.2 20.1 20.1 23.3 23.7 24.3 25.9 27.5 32.1 40.5 37.2 27.7 25.2 24.6 23.9 23.3 22.7 22.4 22.1 21.8 21.5 21.2 21.0 20.7 20.6 20.4 20.3 20.2 20.1 23.9 24.5 25.5 29.7 36.6 50.7 67.0 61.0 38.6 26.5 25.2 24.5 23.8 23.2 22.8 22.4 22.0 21.6 21.3 21.0 20.8 20.6 20.5 20.3 20.2 20.1 24.6 25.5 28.3 49.9 88.0 127.5 134.6 98.7 53.3 28.5 26.2 25.4 24.7 23.9 23.2 22.7 22.2 21.8 21.4 21.1 20.9 20.7 20.6 20.4 20.2 20.1 25.9 27.7 34.3 72.9 171.0 300.8 297.9 167.8 69.4 30.6 27.7 26.7 25.7 24.6 23.7 23.0 22.5 21.9 21.5 21.2 21.0 20.8 20.6 20.4 20.2 20.1 27.4 29.4 36.4 68.6 200.5 408.6 408.4 211.2 76.1 32.4 28.9 27.4 25.9 24.8 23.8 23.1 22.5 22.0 21.6 21.3 21.0 20.8 20.6 20.3 20.1 20.1 28.0 29.5 33.3 55.5 176.8 366.2 366.1 189.1 68.0 33.4 28.9 26.9 25.4 24.4 23.6 22.9 22.4 22.0 21.6 21.3 21.0 20.8 20.5 20.3 20.1 20.1 27.0 28.9 31.4 47.6 112.2 202.6 203.1 117.1 52.8 31.6 27.8 26.0 24.7 23.8 23.2 22.6 22.2 21.9 21.6 21.2 21.0 20.7 20.5 20.3 20.2 20.1 25.3 27.0 28.9 36.9 49.5 63.9 65.8 51.6 36.9 28.3 26.3 25.0 24.1 23.4 22.8 22.3 22.0 21.7 21.4 21.1 20.8 20.6 20.5 20.3 20.2 20.1 23.4 25.3 26.3 28.8 33.9 47.8 51.5 38.5 29.8 26.2 25.0 24.2 23.5 22.9 22.4 22.0 21.7 21.4 21.1 20.9 20.7 20.5 20.4 20.3 20.1 20.1 20.0 20.0 20.0 20.0 20.1 20.1 20.0 20.0 20.1 20.0 20.0 20.0 20.0 20.0 20.0 20.0 20.0 20.0 20.0 20.0 20.0 20.0 20.0 20.0 20.0 20.0 20.1 20.1 20.1 20.1 20.1 20.1 20.1 20.1 20.1 20.1 20.1 20.1 20.1 20.1 20.1 20.1 20.1 20.1 20.0 20.0 20.0 20.0 20.0 20.0 20.0 20.0 20.1 20.1 20.2 20.2 20.2 20.2 20.2 20.2 20.2 20.2 20.2 20.2 20.1 20.1 20.1 20.1 20.1 20.1 20.1 20.1 20.1 20.1 20.1 20.0 20.0 20.0 20.2 20.2 20.3 20.3 20.3 20.3 20.3 20.3 20.3 20.3 20.3 20.2 20.2 20.2 20.2 20.2 20.2 20.2 20.1 20.1 20.1 20.1 20.1 20.1 20.0 20.0 20.3 20.3 20.4 20.4 20.5 20.5 20.4 20.4 20.4 20.4 20.4 20.3 20.3 20.3 20.3 20.3 20.2 20.2 20.2 20.2 20.2 20.2 20.1 20.1 20.0 20.0 20.4 20.4 20.5 20.5 20.6 20.6 20.6 20.6 20.6 20.6 20.5 20.4 20.4 20.4 20.4 20.3 20.3 20.3 20.3 20.3 20.2 20.2 20.1 20.1 20.0 20.0 20.5 20.6 20.6 20.7 20.8 20.8 20.8 20.8 20.8 20.7 20.6 20.6 20.5 20.5 20.5 20.4 20.4 20.4 20.4 20.3 20.3 20.2 20.1 20.1 20.1 20.0 20.6 20.7 20.7 20.8 20.9 21.0 21.0 21.0 21.0 20.9 20.8 20.7 20.6 20.6 20.6 20.5 20.5 20.5 20.4 20.4 20.3 20.2 20.2 20.1 20.1 20.0 20.7 20.8 20.9 21.0 21.0 21.1 21.2 21.2 21.2 21.0 20.9 20.8 20.8 20.7 20.7 20.6 20.6 20.6 20.5 20.4 20.3 20.2 20.2 20.1 20.1 20.0 20.9 21.0 21.1 21.2 21.3 21.3 21.4 21.5 21.4 21.2 21.1 21.0 20.9 20.9 20.8 20.8 20.8 20.7 20.6 20.4 20.3 20.3 20.2 20.1 20.1 20.0 21.0 21.1 21.3 21.4 21.5 21.6 21.7 21.8 21.7 21.5 21.3 21.2 21.1 21.1 21.1 21.0 20.9 20.7 20.6 20.5 20.4 20.3 20.2 20.1 20.1 20.0 21.2 21.4 21.5 21.7 21.8 21.9 22.1 22.2 22.0 21.7 21.5 21.4 21.4 21.4 21.3 21.1 21.0 20.8 20.6 20.5 20.4 20.3 20.2 20.2 20.1 20.0 21.5 21.6 21.8 22.0 22.2 22.4 22.6 22.6 22.4 22.1 21.9 21.8 21.7 21.6 21.5 21.2 21.0 20.8 20.7 20.6 20.5 20.4 20.3 20.2 20.1 20.0 21.7 21.9 22.1 22.4 22.6 22.9 23.1 23.1 22.8 22.5 22.3 22.2 22.0 21.8 21.6 21.3 21.1 20.9 20.8 20.7 20.5 20.4 20.3 20.2 20.1 20.0 22.1 22.3 22.5 22.8 23.2 23.6 23.9 23.8 23.4 23.0 22.8 22.6 22.3 22.0 21.7 21.4 21.2 21.0 20.9 20.7 20.6 20.4 20.3 20.2 20.1 20.0 22.4 22.8 23.2 23.6 24.1 24.6 25.1 24.9 24.2 23.7 23.5 23.1 22.6 22.2 21.9 21.6 21.4 21.1 21.0 20.8 20.6 20.5 20.3 20.2 20.1 20.0 22.9 23.4 24.3 25.1 25.9 27.8 29.9 28.2 25.3 24.6 24.1 23.6 23.0 22.5 22.1 21.8 21.5 21.3 21.0 20.8 20.7 20.5 20.4 20.2 20.1 20.1 23.5 24.2 26.3 28.3 29.4 37.1 48.0 41.4 28.5 25.6 24.8 24.1 23.4 22.9 22.4 22.0 21.7 21.4 21.1 20.9 20.7 20.5 20.4 20.3 20.2 20.1 24.5 25.7 29.7 34.9 42.5 76.2 109.6 95.4 53.4 28.5 25.7 24.6 23.9 23.2 22.7 22.3 21.9 21.6 21.3 21.0 20.8 20.6 20.5 20.3 20.2 20.1 27.5 30.3 37.7 70.5 127.0 201.9 243.4 194.3 94.7 34.5 26.9 25.6 24.8 24.0 23.2 22.7 22.2 21.7 21.4 21.1 20.9 20.7 20.5 20.4 20.2 20.1 31.9 35.0 51.3 125.7 258.1 372.1 394.9 276.9 110.4 37.0 28.6 27.1 26.0 24.8 23.8 23.1 22.5 22.0 21.5 21.2 21.0 20.8 20.6 20.4 20.2 20.1 33.4 35.1 53.8 137.9 303.7 435.3 441.2 285.6 99.0 36.4 30.1 28.2 26.7 25.4 24.2 23.3 22.7 22.1 21.7 21.3 21.0 20.8 20.6 20.3 20.1 20.1 31.2 32.6 45.9 105.8 247.7 371.5 384.4 259.4 97.5 37.6 30.4 27.8 26.1 25.1 24.1 23.2 22.6 22.1 21.7 21.4 21.1 20.8 20.5 20.3 20.2 20.1 28.3 30.2 39.0 66.8 136.5 208.1 235.8 185.9 86.1 35.6 28.9 26.6 25.2 24.4 23.6 22.9 22.4 22.0 21.6 21.3 21.0 20.7 20.5 20.3 20.2 20.1 26.1 27.7 31.2 39.9 55.8 80.5 100.8 89.5 53.2 30.7 27.0 25.5 24.5 23.7 23.1 22.5 22.1 21.7 21.4 21.1 20.9 20.6 20.5 20.3 20.2 20.1 23.6 25.6 26.7 29.4 37.7 61.7 74.2 55.2 35.0 27.2 25.6 24.6 23.7 23.1 22.6 22.1 21.8 21.5 21.2 21.0 20.7 20.6 20.4 20.3 20.1 20.1 20.0 20.0 20.0 20.1 20.0 20.0 20.0 20.0 20.1 20.1 20.0 20.0 20.0 20.0 20.0 20.0 20.0 20.0 20.0 20.0 20.0 20.0 20.0 20.0 20.0 20.0 20.1 20.1 20.1 20.1 20.1 20.1 20.1 20.1 20.1 20.1 20.1 20.1 20.1 20.1 20.1 20.1 20.1 20.1 20.1 20.0 20.0 20.0 20.0 20.0 20.0 20.0 20.2 20.2 20.2 20.2 20.2 20.2 20.2 20.2 20.2 20.2 20.2 20.2 20.2 20.2 20.1 20.1 20.1 20.1 20.1 20.1 20.1 20.1 20.1 20.0 20.0 20.0 20.3 20.3 20.3 20.4 20.4 20.3 20.3 20.3 20.3 20.3 20.3 20.3 20.2 20.2 20.2 20.2 20.2 20.2 20.2 20.2 20.1 20.1 20.1 20.1 20.0 20.0 20.4 20.4 20.4 20.5 20.5 20.5 20.5 20.4 20.5 20.5 20.4 20.4 20.3 20.3 20.3 20.3 20.3 20.2 20.2 20.2 20.2 20.2 20.1 20.1 20.0 20.0 20.5 20.5 20.6 20.6 20.7 20.6 20.6 20.6 20.6 20.6 20.5 20.5 20.4 20.4 20.4 20.4 20.4 20.3 20.3 20.3 20.2 20.2 20.1 20.1 20.1 20.0 20.6 20.7 20.7 20.8 20.8 20.8 20.7 20.8 20.8 20.8 20.7 20.6 20.6 20.6 20.5 20.5 20.5 20.4 20.4 20.3 20.3 20.2 20.2 20.1 20.1 20.0 20.7 20.8 20.9 20.9 21.0 21.0 21.0 21.0 21.0 20.9 20.8 20.8 20.7 20.7 20.6 20.6 20.6 20.5 20.5 20.4 20.3 20.2 20.2 20.1 20.1 20.0 20.8 21.0 21.1 21.1 21.2 21.2 21.2 21.3 21.3 21.1 21.0 20.9 20.9 20.8 20.8 20.7 20.7 20.6 20.6 20.5 20.4 20.3 20.2 20.1 20.1 20.0 20.9 21.1 21.3 21.4 21.4 21.4 21.4 21.5 21.5 21.3 21.2 21.1 21.0 21.0 20.9 20.9 20.8 20.7 20.6 20.5 20.4 20.3 20.2 20.1 20.1 20.0 21.1 21.3 21.5 21.6 21.6 21.7 21.8 21.9 21.8 21.5 21.4 21.3 21.2 21.2 21.1 21.0 20.9 20.8 20.6 20.5 20.4 20.3 20.2 20.2 20.1 20.0 21.3 21.5 21.7 21.8 22.0 22.0 22.1 22.2 22.1 21.8 21.6 21.5 21.5 21.4 21.3 21.2 21.0 20.8 20.7 20.6 20.5 20.4 20.3 20.2 20.1 20.0 21.6 21.7 21.9 22.1 22.3 22.4 22.6 22.7 22.4 22.1 22.0 21.9 21.8 21.7 21.5 21.3 21.1 20.9 20.8 20.6 20.5 20.4 20.3 20.2 20.1 20.0 21.8 22.1 22.3 22.5 22.8 23.0 23.1 23.1 22.8 22.5 22.4 22.3 22.1 21.9 21.6 21.4 21.2 21.0 20.8 20.7 20.6 20.4 20.3 20.2 20.1 20.0 22.2 22.4 22.7 23.0 23.3 23.7 24.0 23.9 23.4 23.1 22.9 22.7 22.4 22.0 21.7 21.5 21.3 21.1 20.9 20.8 20.6 20.5 20.3 20.2 20.1 20.1 22.6 23.0 23.5 23.7 24.1 24.7 25.1 24.9 24.3 23.8 23.5 23.1 22.7 22.3 21.9 21.7 21.4 21.2 21.0 20.8 20.7 20.5 20.4 20.2 20.1 20.1 23.1 24.8 26.1 25.8 26.5 28.3 29.0 27.3 25.4 24.7 24.1 23.6 23.1 22.6 22.2 21.9 21.6 21.3 21.1 20.9 20.7 20.5 20.4 20.3 20.1 20.1 23.9 27.4 30.3 29.2 28.2 33.8 39.4 34.1 27.6 25.8 24.9 24.1 23.5 23.0 22.5 22.1 21.7 21.5 21.2 21.0 20.8 20.6 20.4 20.3 20.2 20.1 26.1 31.6 36.1 35.8 34.2 63.3 92.7 82.6 52.0 29.0 25.8 24.7 23.9 23.3 22.8 22.3 21.9 21.6 21.3 21.1 20.8 20.7 20.5 20.4 20.2 20.1 35.3 42.2 49.5 71.6 88.2 170.5 252.2 209.9 108.2 38.6 27.1 25.6 24.7 23.8 23.2 22.6 22.2 21.8 21.5 21.2 21.0 20.8 20.6 20.4 20.2 20.1 43.2 53.4 78.4 148.7 186.6 278.2 380.5 275.1 111.4 41.6 28.8 27.0 25.9 24.6 23.7 23.0 22.5 22.0 21.7 21.3 21.1 20.8 20.6 20.4 20.2 20.1 40.8 54.7 101.0 199.8 237.1 294.4 377.3 244.4 77.7 37.9 30.5 28.5 26.8 25.4 24.3 23.3 22.7 22.2 21.8 21.4 21.1 20.9 20.6 20.4 20.2 20.1 35.1 46.3 86.1 162.2 195.0 273.4 366.1 258.9 99.0 39.3 30.8 28.4 26.6 25.5 24.4 23.4 22.7 22.2 21.8 21.4 21.1 20.9 20.6 20.4 20.2 20.1 31.1 36.7 53.4 82.8 107.0 189.3 286.8 240.4 108.7 37.7 29.3 27.1 25.7 24.7 23.9 23.2 22.5 22.1 21.7 21.4 21.1 20.8 20.6 20.4 20.2 20.1 27.8 30.8 34.3 38.6 52.6 99.4 161.2 150.3 74.9 32.4 27.4 25.9 24.8 23.9 23.3 22.7 22.2 21.8 21.5 21.2 21.0 20.7 20.5 20.3 20.2 20.1 24.0 27.2 28.6 29.5 41.2 78.2 111.4 92.1 48.0 28.2 25.8 24.9 24.0 23.3 22.8 22.3 21.9 21.6 21.3 21.1 20.9 20.7 20.5 20.3 20.2 20.1 20.0 20.1 20.1 20.1 20.0 20.0 20.0 20.0 20.0 20.1 20.0 20.0 20.0 20.0 20.0 20.0 20.0 20.0 20.0 20.0 20.0 20.0 20.0 20.0 20.0 20.0 20.1 20.1 20.1 20.1 20.1 20.1 20.1 20.1 20.1 20.1 20.1 20.1 20.1 20.1 20.1 20.1 20.1 20.1 20.1 20.1 20.1 20.1 20.1 20.0 20.0 20.0 20.2 20.2 20.3 20.3 20.2 20.2 20.2 20.2 20.2 20.2 20.2 20.2 20.2 20.2 20.2 20.2 20.2 20.1 20.1 20.1 20.1 20.1 20.1 20.1 20.0 20.0 20.3 20.3 20.4 20.4 20.4 20.3 20.3 20.3 20.4 20.3 20.3 20.3 20.3 20.3 20.3 20.2 20.2 20.2 20.2 20.2 20.2 20.2 20.1 20.1 20.0 20.0 20.4 20.4 20.5 20.6 20.6 20.5 20.4 20.5 20.5 20.5 20.4 20.4 20.4 20.4 20.3 20.3 20.3 20.3 20.3 20.3 20.2 20.2 20.2 20.1 20.1 20.0 20.5 20.6 20.6 20.7 20.7 20.6 20.6 20.6 20.7 20.6 20.6 20.5 20.5 20.5 20.5 20.4 20.4 20.4 20.4 20.3 20.3 20.2 20.2 20.1 20.1 20.0 20.6 20.7 20.8 20.8 20.8 20.8 20.7 20.8 20.9 20.8 20.7 20.7 20.6 20.6 20.6 20.6 20.6 20.5 20.5 20.4 20.3 20.3 20.2 20.1 20.1 20.0 20.7 20.9 20.9 21.0 21.0 21.0 21.0 21.0 21.1 21.0 20.9 20.8 20.8 20.8 20.7 20.7 20.7 20.6 20.5 20.5 20.4 20.3 20.2 20.1 20.1 20.0 20.9 21.0 21.1 21.2 21.2 21.2 21.2 21.3 21.3 21.2 21.1 21.0 21.0 20.9 20.9 20.9 20.8 20.7 20.6 20.5 20.4 20.3 20.2 20.2 20.1 20.0 21.0 21.2 21.3 21.4 21.5 21.5 21.5 21.6 21.6 21.4 21.3 21.2 21.1 21.1 21.0 21.0 20.9 20.8 20.7 20.6 20.4 20.3 20.2 20.2 20.1 20.0 21.2 21.3 21.5 21.6 21.7 21.8 21.8 21.9 21.8 21.6 21.5 21.4 21.3 21.3 21.2 21.1 21.0 20.9 20.7 20.6 20.5 20.4 20.3 20.2 20.1 20.0 21.4 21.6 21.8 21.9 22.0 22.1 22.2 22.3 22.1 21.9 21.7 21.7 21.6 21.5 21.4 21.2 21.1 20.9 20.8 20.6 20.5 20.4 20.3 20.2 20.1 20.1 21.6 21.8 22.0 22.2 22.4 22.5 22.6 22.7 22.4 22.2 22.0 22.0 21.9 21.7 21.5 21.4 21.2 21.0 20.9 20.7 20.6 20.5 20.3 20.2 20.1 20.1 21.9 22.1 22.4 22.6 22.8 23.0 23.1 23.1 22.9 22.5 22.4 22.3 22.1 21.9 21.7 21.5 21.3 21.1 20.9 20.8 20.6 20.5 20.4 20.2 20.1 20.1 22.2 22.5 22.8 23.0 23.3 23.7 24.0 23.8 23.4 23.1 22.9 22.7 22.4 22.1 21.9 21.6 21.4 21.2 21.0 20.8 20.7 20.5 20.4 20.2 20.1 20.1 22.7 23.2 23.6 23.7 24.0 24.5 24.9 24.7 24.2 23.8 23.5 23.1 22.7 22.4 22.1 21.8 21.6 21.3 21.1 20.9 20.7 20.5 20.4 20.3 20.1 20.1 23.8 25.7 26.5 25.6 26.0 27.2 27.8 26.7 25.2 24.6 24.1 23.5 23.1 22.7 22.3 22.0 21.7 21.4 21.2 20.9 20.7 20.6 20.4 20.3 20.1 20.1 27.5 32.1 32.5 27.6 26.5 29.8 32.0 29.6 26.8 25.6 24.9 24.1 23.5 23.0 22.6 22.2 21.8 21.5 21.2 21.0 20.8 20.6 20.5 20.3 20.2 20.1 35.8 45.5 42.4 31.4 27.9 39.7 51.0 52.4 41.5 27.8 25.7 24.8 24.0 23.4 22.8 22.4 22.0 21.7 21.4 21.1 20.9 20.7 20.5 20.4 20.2 20.1 49.0 63.2 60.6 55.3 62.2 119.4 172.2 158.2 92.5 36.6 27.3 25.5 24.6 23.8 23.2 22.7 22.3 21.9 21.6 21.3 21.1 20.9 20.7 20.5 20.3 20.2 58.1 83.5 102.4 111.0 115.0 201.7 289.2 222.4 99.6 40.7 29.1 26.9 25.6 24.4 23.6 23.1 22.6 22.1 21.8 21.5 21.2 20.9 20.7 20.5 20.2 20.1 54.8 94.3 148.6 159.7 144.6 226.1 305.0 200.5 70.1 38.3 30.4 28.3 26.6 25.2 24.2 23.4 22.7 22.2 21.8 21.5 21.2 20.9 20.7 20.5 20.2 20.1 44.8 74.3 125.8 134.2 137.7 242.2 323.8 228.3 89.5 39.0 30.6 28.5 26.6 25.4 24.4 23.4 22.8 22.3 21.9 21.5 21.1 20.9 20.6 20.4 20.2 20.1 36.7 46.3 64.8 70.6 90.4 184.0 287.0 241.0 102.6 36.5 29.3 27.6 25.9 24.8 24.0 23.3 22.7 22.2 21.8 21.4 21.1 20.8 20.6 20.4 20.2 20.1 30.1 34.6 38.3 39.3 49.9 101.8 191.6 185.5 84.3 32.4 27.6 26.3 25.1 24.1 23.4 22.9 22.4 22.0 21.7 21.3 21.1 20.8 20.6 20.4 20.2 20.1 24.5 29.9 32.0 30.5 41.6 83.4 141.1 127.8 59.3 28.9 26.1 25.1 24.3 23.5 23.0 22.5 22.0 21.7 21.4 21.2 21.0 20.8 20.6 20.4 20.2 20.1 20.0 20.1 20.1 20.1 20.1 20.0 20.0 20.0 20.1 20.1 20.0 20.0 20.0 20.0 20.0 20.1 20.1 20.1 20.1 20.0 20.0 20.0 20.0 20.0 20.0 20.0 20.1 20.1 20.1 20.1 20.1 20.1 20.1 20.1 20.1 20.1 20.1 20.1 20.1 20.1 20.1 20.1 20.1 20.1 20.1 20.1 20.1 20.1 20.1 20.1 20.0 20.0 20.2 20.2 20.3 20.3 20.2 20.2 20.2 20.2 20.2 20.2 20.2 20.2 20.2 20.2 20.2 20.2 20.2 20.2 20.2 20.2 20.2 20.2 20.1 20.1 20.0 20.0 20.3 20.3 20.4 20.4 20.4 20.3 20.3 20.3 20.4 20.4 20.3 20.3 20.3 20.3 20.3 20.3 20.3 20.3 20.3 20.3 20.2 20.2 20.2 20.1 20.1 20.0 20.4 20.4 20.5 20.5 20.5 20.5 20.4 20.5 20.5 20.5 20.5 20.4 20.4 20.4 20.4 20.4 20.4 20.4 20.4 20.3 20.3 20.2 20.2 20.1 20.1 20.0 20.5 20.5 20.6 20.7 20.7 20.6 20.6 20.7 20.7 20.7 20.6 20.6 20.5 20.5 20.5 20.5 20.5 20.5 20.5 20.4 20.3 20.3 20.2 20.1 20.1 20.0 20.6 20.7 20.7 20.8 20.8 20.8 20.8 20.8 20.9 20.8 20.8 20.7 20.7 20.7 20.6 20.6 20.6 20.6 20.5 20.5 20.4 20.3 20.2 20.2 20.1 20.0 20.7 20.8 20.9 21.0 21.0 21.0 21.0 21.1 21.1 21.0 20.9 20.9 20.9 20.8 20.8 20.8 20.8 20.7 20.6 20.5 20.4 20.3 20.3 20.2 20.1 20.1 20.9 21.0 21.1 21.1 21.2 21.2 21.3 21.3 21.3 21.2 21.1 21.1 21.0 21.0 21.0 21.0 20.9 20.8 20.7 20.6 20.5 20.4 20.3 20.2 20.1 20.0 21.1 21.2 21.3 21.4 21.4 21.5 21.5 21.6 21.6 21.4 21.3 21.3 21.2 21.2 21.1 21.1 21.0 20.9 20.8 20.6 20.5 20.4 20.3 20.2 20.1 20.0 21.3 21.4 21.5 21.6 21.7 21.8 21.9 21.9 21.8 21.7 21.6 21.5 21.4 21.4 21.3 21.2 21.1 20.9 20.8 20.6 20.5 20.4 20.3 20.2 20.1 20.1 21.5 21.6 21.8 21.9 22.0 22.1 22.2 22.2 22.1 21.9 21.8 21.8 21.7 21.6 21.4 21.3 21.2 21.0 20.9 20.7 20.6 20.4 20.3 20.2 20.1 20.1 21.7 21.9 22.1 22.2 22.4 22.5 22.6 22.6 22.5 22.2 22.1 22.0 21.9 21.7 21.6 21.5 21.3 21.1 20.9 20.8 20.6 20.5 20.4 20.2 20.1 20.1 22.0 22.2 22.4 22.6 22.8 23.0 23.1 23.1 22.9 22.6 22.5 22.3 22.2 22.0 21.8 21.6 21.4 21.2 21.0 20.8 20.7 20.5 20.4 20.3 20.1 20.1 22.3 22.6 22.9 23.0 23.3 23.6 23.8 23.8 23.4 23.2 23.0 22.7 22.4 22.2 22.0 21.8 21.5 21.3 21.1 20.9 20.7 20.5 20.4 20.3 20.1 20.1 22.7 23.1 23.5 23.6 23.8 24.2 24.7 24.6 24.1 23.8 23.5 23.1 22.8 22.5 22.2 21.9 21.7 21.4 21.2 20.9 20.7 20.6 20.4 20.3 20.1 20.1 24.2 25.1 25.8 25.4 25.3 26.0 26.6 26.0 25.0 24.5 24.1 23.5 23.1 22.7 22.4 22.1 21.8 21.5 21.2 21.0 20.8 20.6 20.5 20.3 20.2 20.1 30.2 33.5 30.7 26.0 27.0 28.8 28.7 27.5 26.1 25.4 24.8 24.1 23.5 23.1 22.7 22.3 21.9 21.6 21.3 21.0 20.8 20.7 20.5 20.3 20.2 20.1 46.2 54.7 41.9 26.7 30.0 33.9 33.5 35.8 33.2 27.2 25.6 24.7 24.0 23.4 22.9 22.4 22.1 21.7 21.4 21.2 20.9 20.7 20.6 20.4 20.2 20.1 62.7 77.0 57.9 37.1 61.1 86.6 90.0 90.6 63.4 33.7 27.3 25.4 24.5 23.7 23.2 22.7 22.3 21.9 21.6 21.3 21.1 20.9 20.6 20.4 20.2 20.1 76.3 105.0 88.7 57.7 99.2 153.3 168.6 145.8 79.3 39.8 29.6 26.6 25.3 24.3 23.7 23.1 22.6 22.1 21.8 21.5 21.2 20.9 20.7 20.4 20.2 20.1 83.5 128.4 124.2 88.4 141.7 215.8 230.3 163.7 70.3 40.4 30.7 27.8 26.2 25.0 24.2 23.4 22.7 22.2 21.8 21.5 21.2 20.9 20.6 20.4 20.2 20.1 67.0 97.5 103.0 105.4 194.3 269.4 277.1 190.9 73.3 38.2 30.2 28.1 26.3 25.0 24.2 23.4 22.8 22.2 21.8 21.4 21.1 20.8 20.6 20.4 20.2 20.1 42.9 49.7 56.2 76.8 139.6 192.9 245.7 206.3 83.1 34.1 28.9 27.5 25.8 24.5 23.8 23.3 22.7 22.2 21.8 21.4 21.1 20.8 20.6 20.4 20.2 20.1 30.2 33.9 39.4 42.7 51.5 90.0 176.8 176.0 77.0 31.0 27.3 26.2 25.0 24.0 23.4 22.9 22.4 22.0 21.7 21.4 21.1 20.9 20.6 20.4 20.2 20.1 24.6 30.5 33.4 31.7 38.1 78.8 148.4 133.0 56.1 28.4 26.0 25.1 24.3 23.6 23.0 22.5 22.1 21.7 21.4 21.2 21.0 20.8 20.6 20.4 20.2 20.1 20.0 20.1 20.1 20.1 20.1 20.1 20.0 20.0 20.1 20.1 20.1 20.0 20.0 20.0 20.0 20.1 20.1 20.1 20.1 20.0 20.0 20.1 20.1 20.1 20.0 20.0 20.1 20.1 20.1 20.1 20.1 20.1 20.1 20.1 20.1 20.1 20.1 20.1 20.1 20.1 20.1 20.1 20.1 20.1 20.1 20.1 20.1 20.1 20.1 20.1 20.1 20.0 20.2 20.2 20.2 20.2 20.2 20.2 20.2 20.2 20.2 20.2 20.2 20.2 20.2 20.2 20.2 20.2 20.2 20.2 20.2 20.2 20.2 20.2 20.2 20.1 20.1 20.0 20.3 20.3 20.3 20.4 20.4 20.3 20.3 20.4 20.4 20.4 20.3 20.3 20.3 20.3 20.3 20.3 20.3 20.3 20.3 20.3 20.3 20.2 20.2 20.1 20.1 20.0 20.4 20.4 20.4 20.5 20.5 20.5 20.5 20.5 20.5 20.5 20.5 20.4 20.4 20.4 20.4 20.4 20.4 20.4 20.4 20.4 20.3 20.3 20.2 20.1 20.1 20.0 20.5 20.5 20.6 20.6 20.6 20.6 20.6 20.7 20.7 20.7 20.6 20.6 20.6 20.6 20.5 20.5 20.5 20.5 20.5 20.5 20.4 20.3 20.2 20.1 20.1 20.0 20.6 20.7 20.7 20.8 20.8 20.8 20.8 20.8 20.9 20.8 20.8 20.7 20.7 20.7 20.7 20.7 20.7 20.6 20.6 20.5 20.5 20.4 20.3 20.2 20.1 20.1 20.8 20.9 20.9 21.0 21.0 21.0 21.0 21.0 21.1 21.0 21.0 20.9 20.9 20.9 20.9 20.9 20.8 20.8 20.7 20.6 20.5 20.4 20.3 20.2 20.1 20.1 21.0 21.1 21.1 21.1 21.2 21.2 21.2 21.3 21.3 21.3 21.2 21.1 21.1 21.1 21.1 21.0 21.0 20.9 20.8 20.6 20.5 20.4 20.3 20.2 20.1 20.1 21.2 21.3 21.3 21.4 21.4 21.5 21.5 21.6 21.6 21.5 21.4 21.3 21.3 21.3 21.2 21.1 21.0 20.9 20.8 20.6 20.5 20.4 20.3 20.2 20.1 20.1 21.4 21.5 21.6 21.6 21.7 21.8 21.8 21.9 21.9 21.7 21.6 21.6 21.5 21.4 21.4 21.2 21.1 21.0 20.8 20.7 20.5 20.4 20.3 20.2 20.1 20.1 21.6 21.7 21.8 21.9 22.0 22.1 22.2 22.2 22.2 22.0 21.9 21.8 21.8 21.6 21.5 21.4 21.2 21.1 20.9 20.7 20.6 20.4 20.3 20.2 20.1 20.1 21.8 22.0 22.1 22.2 22.3 22.5 22.6 22.6 22.5 22.3 22.2 22.1 22.0 21.8 21.7 21.6 21.4 21.2 21.0 20.8 20.6 20.5 20.4 20.2 20.1 20.1 22.1 22.4 22.5 22.6 22.7 22.9 23.1 23.1 23.0 22.7 22.5 22.4 22.2 22.0 21.9 21.7 21.4 21.2 21.1 20.9 20.7 20.5 20.4 20.3 20.1 20.1 22.4 22.7 23.0 23.1 23.2 23.4 23.7 23.7 23.4 23.2 23.0 22.7 22.5 22.3 22.1 21.8 21.6 21.3 21.1 20.9 20.7 20.5 20.4 20.3 20.1 20.1 22.8 23.1 23.5 23.7 23.7 24.0 24.5 24.4 24.0 23.7 23.4 23.1 22.8 22.6 22.3 22.0 21.7 21.4 21.2 20.9 20.7 20.5 20.4 20.3 20.1 20.1 24.4 25.2 25.4 25.3 25.0 25.1 25.4 25.3 24.8 24.4 24.0 23.5 23.1 22.8 22.5 22.1 21.8 21.5 21.2 21.0 20.7 20.6 20.4 20.3 20.2 20.1 36.1 37.0 29.4 26.4 27.2 26.8 26.6 26.5 26.0 25.2 24.6 24.1 23.6 23.2 22.7 22.3 21.9 21.5 21.3 21.0 20.8 20.7 20.5 20.3 20.2 20.1 62.3 62.0 40.6 27.7 30.4 29.9 29.0 29.4 28.9 26.8 25.4 24.6 24.0 23.5 23.0 22.4 22.0 21.7 21.4 21.2 20.9 20.7 20.5 20.4 20.2 20.1 84.0 82.3 51.6 35.8 43.6 44.2 44.5 46.2 42.0 32.5 27.5 25.4 24.5 23.9 23.3 22.7 22.2 21.9 21.5 21.3 21.0 20.8 20.6 20.4 20.2 20.1 97.3 104.7 70.5 56.7 67.1 68.6 81.6 82.4 63.4 44.1 32.3 26.7 25.3 24.5 23.7 23.1 22.5 22.0 21.7 21.4 21.1 20.8 20.6 20.4 20.2 20.1 104.3 125.7 101.7 102.6 122.7 131.6 156.6 122.0 68.2 47.6 33.8 27.7 26.0 25.0 24.2 23.4 22.7 22.1 21.8 21.4 21.1 20.8 20.6 20.4 20.2 20.1 79.2 97.5 110.9 162.5 206.8 210.7 226.0 150.8 58.5 39.3 31.0 27.8 26.2 24.9 24.1 23.4 22.7 22.2 21.8 21.4 21.1 20.8 20.6 20.4 20.2 20.1 43.0 50.2 75.9 128.1 168.0 173.9 206.6 160.7 60.2 32.3 28.8 27.3 25.8 24.5 23.7 23.1 22.6 22.1 21.8 21.4 21.1 20.9 20.6 20.4 20.2 20.1 28.8 32.7 40.7 50.5 62.0 88.2 155.7 142.8 56.8 29.2 27.1 26.1 25.1 24.0 23.3 22.8 22.4 22.0 21.7 21.4 21.1 20.9 20.7 20.4 20.2 20.1 24.5 29.6 32.6 31.8 33.7 64.0 125.4 107.9 42.6 27.3 25.9 25.1 24.4 23.7 23.1 22.5 22.1 21.8 21.5 21.2 21.0 20.8 20.6 20.4 20.2 20.1 20.1 20.1 20.1 20.1 20.1 20.1 20.0 20.0 20.0 20.1 20.1 20.1 20.1 20.1 20.1 20.1 20.1 20.1 20.1 20.1 20.1 20.1 20.1 20.1 20.1 20.0 20.1 20.1 20.1 20.1 20.1 20.1 20.1 20.1 20.1 20.1 20.1 20.1 20.1 20.1 20.1 20.1 20.1 20.1 20.1 20.1 20.1 20.1 20.1 20.1 20.1 20.0 20.2 20.2 20.2 20.2 20.2 20.2 20.2 20.2 20.2 20.2 20.2 20.2 20.2 20.2 20.2 20.2 20.2 20.2 20.2 20.2 20.2 20.2 20.2 20.1 20.1 20.0 20.3 20.3 20.3 20.4 20.4 20.3 20.3 20.3 20.4 20.4 20.3 20.3 20.3 20.3 20.3 20.3 20.3 20.3 20.3 20.3 20.3 20.3 20.2 20.1 20.1 20.0 20.4 20.4 20.5 20.5 20.5 20.5 20.5 20.5 20.5 20.5 20.5 20.5 20.5 20.5 20.5 20.5 20.5 20.4 20.4 20.4 20.4 20.3 20.2 20.1 20.1 20.0 20.6 20.6 20.6 20.7 20.7 20.6 20.6 20.7 20.7 20.7 20.7 20.7 20.6 20.6 20.6 20.6 20.6 20.5 20.5 20.5 20.5 20.4 20.3 20.2 20.1 20.0 20.8 20.8 20.8 20.8 20.8 20.8 20.8 20.8 20.9 20.9 20.9 20.9 20.8 20.8 20.8 20.8 20.7 20.7 20.6 20.6 20.5 20.4 20.3 20.2 20.1 20.0 21.0 21.0 21.0 21.0 21.0 21.0 21.0 21.0 21.1 21.1 21.1 21.1 21.0 21.0 20.9 20.9 20.9 20.8 20.7 20.7 20.6 20.4 20.3 20.2 20.1 20.1 21.2 21.2 21.2 21.2 21.2 21.2 21.2 21.3 21.3 21.4 21.3 21.3 21.2 21.2 21.1 21.0 21.0 20.9 20.8 20.7 20.6 20.4 20.3 20.2 20.1 20.1 21.4 21.4 21.4 21.4 21.5 21.5 21.5 21.5 21.6 21.6 21.5 21.5 21.4 21.3 21.2 21.2 21.1 21.0 20.9 20.7 20.6 20.4 20.3 20.2 20.1 20.1 21.5 21.6 21.6 21.7 21.7 21.7 21.8 21.8 21.9 21.8 21.7 21.7 21.6 21.5 21.4 21.3 21.2 21.0 20.9 20.7 20.6 20.4 20.3 20.2 20.1 20.1 21.7 21.8 21.9 22.0 22.1 22.0 22.1 22.2 22.2 22.1 22.0 21.9 21.8 21.7 21.5 21.4 21.3 21.1 21.0 20.8 20.6 20.5 20.3 20.2 20.1 20.1 21.9 22.1 22.2 22.3 22.4 22.4 22.5 22.6 22.6 22.5 22.3 22.2 22.1 21.9 21.7 21.6 21.4 21.2 21.1 20.9 20.7 20.5 20.4 20.3 20.1 20.1 22.3 22.5 22.6 22.6 22.7 22.9 23.1 23.1 23.0 22.8 22.7 22.5 22.3 22.1 21.9 21.7 21.5 21.3 21.1 20.9 20.7 20.5 20.4 20.3 20.1 20.1 22.6 22.9 23.