<?xml version="1.0"?>
<VTKFile type="RectilinearGrid" version="1.0" byte_order="LittleEndian" header_type="UInt64">
<RectilinearGrid WholeExtent="25 50 0 25 0 15">
<Piece Extent="25 50 0 25 0 15">
<Coordinates>
<DataArray type="Float64" Name="Array X-Axis" format="ascii" RangeMin="15.0" RangeMax="30.0">
15.0 15.6 16.2 16.8 17.4 18.0 18.6 19.2 19.8 20.4 21.0 21.6 22.2 22.8 23.4 24.0 24.6 25.2 25.8 26.4 27.0 27.6 28.2 28.8 29.4 30.0 
</DataArray>
<DataArray type="Float64" Name="Array Y-Axis" format="ascii" RangeMin="0.0" RangeMax="15.0">
0.0 0.6 1.2 1.8 2.4 3.0 3.6 4.2 4.8 5.4 6.0 6.6 7.2 7.8 8.4 9.0 9.6 10.2 10.8 11.4 12.0 12.6 13.2 13.8 14.4 15.0 
</DataArray>
<DataArray type="Float64" Name="Array Z-Axis" format="ascii" RangeMin="0.0" RangeMax="9.0">
0.0 0.6 1.2 1.8 2.4 3.0 3.6 4.2 4.8 5.4 6.0 6.6 7.2 7.8 8.4 9.0 
</DataArray>
</Coordinates>
<PointData>
<DataArray Name="TEMPERATURE" NumberOfComponents="1" type="Float64" format="ascii">
20.0 20.0 20.0 20.0 20.0 20.0 20.1 20.1 20.1 20.1 20.0 20.0 20.0 20.0 20.0 20.0 20.0 20.0 20.0 20.0 20.0 20.0 20.0 20.0 20.0 20.1 20.1 20.1 20.1 20.1 20.1 20.1 20.1 20.1 20.1 20.1 20.1 20.1 20.1 20.1 20.1 20.1 20.1 20.1 20.1 20.1 20.1 20.1 20.1 20.1 20.1 20.0 20.1 20.1 20.2 20.2 20.2 20.2 20.2 20.2 20.2 20.2 20.2 20.2 20.1 20.1 20.1 20.1 20.1 20.1 20.1 20.1 20.1 20.1 20.2 20.2 20.1 20.0 20.2 20.2 20.2 20.3 20.3 20.3 20.2 20.3 20.3 20.3 20.3 20.2 20.2 20.2 20.2 20.2 20.2 20.2 20.2 20.2 20.2 20.3 20.3 20.2 20.1 20.0 20.3 20.3 20.3 20.4 20.4 20.3 20.3 20.4 20.4 20.4 20.4 20.3 20.3 20.3 20.3 20.3 20.3 20.3 20.3 20.3 20.4 20.4 20.3 20.2 20.1 20.0 20.4 20.4 20.4 20.5 20.5 20.5 20.5 20.5 20.5 20.5 20.5 20.4 20.4 20.4 20.4 20.4 20.4 20.4 20.4 20.5 20.5 20.4 20.3 20.1 20.1 20.0 20.5 20.5 20.6 20.6 20.6 20.6 20.6 20.6 20.7 20.7 20.6 20.5 20.5 20.5 20.5 20.5 20.5 20.5 20.6 20.6 20.5 20.3 20.2 20.1 20.1 20.0 20.6 20.6 20.7 20.7 20.8 20.7 20.7 20.8 20.8 20.8 20.7 20.7 20.6 20.6 20.6 20.6 20.7 20.7 20.7 20.6 20.5 20.3 20.2 20.1 20.1 20.0 20.7 20.7 20.8 20.9 20.9 20.9 20.9 21.0 21.0 21.0 20.9 20.8 20.8 20.8 20.8 20.8 20.9 20.8 20.7 20.6 20.4 20.3 20.2 20.1 20.1 20.0 20.8 20.9 21.0 21.0 21.1 21.1 21.1 21.1 21.2 21.1 21.0 20.9 20.9 21.0 21.0 21.0 21.0 20.9 20.7 20.6 20.4 20.3 20.2 20.2 20.1 20.0 20.9 21.0 21.1 21.2 21.3 21.3 21.3 21.4 21.4 21.3 21.2 21.1 21.2 21.2 21.2 21.2 21.1 20.9 20.7 20.5 20.4 20.3 20.3 20.2 20.1 20.0 21.1 21.2 21.3 21.4 21.5 21.6 21.6 21.6 21.6 21.5 21.4 21.4 21.4 21.5 21.4 21.3 21.1 20.9 20.7 20.6 20.5 20.4 20.3 20.2 20.1 20.0 21.3 21.4 21.5 21.7 21.8 21.8 21.9 21.9 21.9 21.8 21.7 21.7 21.7 21.7 21.6 21.3 21.1 20.9 20.7 20.6 20.5 20.4 20.3 20.2 20.1 20.0 21.6 21.7 21.8 22.0 22.1 22.2 22.3 22.3 22.3 22.2 22.1 22.1 22.0 21.9 21.6 21.3 21.1 20.9 20.7 20.6 20.5 20.4 20.3 20.2 20.1 20.0 21.9 22.0 22.1 22.3 22.5 22.7 22.8 22.8 22.8 22.7 22.6 22.5 22.3 22.0 21.6 21.3 21.1 20.9 20.8 20.7 20.5 20.4 20.3 20.2 20.1 20.1 22.2 22.4 22.5 22.7 23.1 23.4 23.4 23.4 23.3 23.2 23.0 22.8 22.4 22.0 21.6 21.3 21.1 21.0 20.8 20.7 20.5 20.4 20.3 20.2 20.1 20.1 22.6 22.8 23.0 23.3 23.7 24.1 24.3 24.3 24.2 23.8 23.4 23.0 22.5 22.0 21.7 21.4 21.2 21.0 20.9 20.7 20.6 20.4 20.3 20.2 20.1 20.1 23.0 23.3 23.7 24.1 24.5 25.0 25.5 25.7 25.3 24.5 23.8 23.2 22.6 22.1 21.8 21.5 21.3 21.1 20.9 20.8 20.6 20.5 20.4 20.3 20.1 20.1 23.4 23.8 24.4 25.3 26.0 27.6 33.4 32.5 26.5 25.2 24.1 23.3 22.7 22.3 22.0 21.7 21.5 21.3 21.0 20.9 20.7 20.6 20.4 20.3 20.2 20.1 24.0 24.6 25.5 28.6 30.5 32.4 43.4 42.5 29.8 25.9 24.6 23.8 23.2 22.7 22.3 21.9 21.6 21.4 21.2 20.9 20.8 20.6 20.4 20.3 20.2 20.1 24.8 25.8 27.5 36.3 40.4 35.2 46.3 43.0 32.4 27.1 25.4 24.4 23.8 23.1 22.5 22.1 21.8 21.5 21.2 21.0 20.7 20.6 20.4 20.3 20.2 20.1 25.5 27.0 29.0 39.6 49.0 20.0 20.0 35.6 32.5 28.0 26.0 24.9 24.1 23.3 22.6 22.2 21.8 21.5 21.2 21.0 20.8 20.6 20.5 20.3 20.2 20.1 25.7 27.2 28.8 35.4 41.0 20.0 20.0 33.8 31.1 27.4 25.8 24.7 23.8 23.2 22.5 22.1 21.8 21.4 21.2 21.0 20.8 20.6 20.5 20.3 20.2 20.1 25.2 26.3 27.9 32.7 35.8 35.3 35.4 31.6 28.5 26.2 25.0 24.1 23.4 22.9 22.4 22.0 21.7 21.4 21.1 21.0 20.8 20.6 20.5 20.3 20.2 20.1 24.3 24.9 26.1 29.5 31.9 32.2 32.1 29.5 26.5 25.2 24.2 23.5 23.0 22.6 22.2 21.9 21.6 21.3 21.1 21.0 20.8 20.6 20.4 20.3 20.2 20.1 22.8 24.1 24.6 25.9 27.4 28.1 27.9 27.0 25.5 24.4 23.7 23.0 22.6 22.2 22.0 21.7 21.5 21.2 21.0 20.9 20.7 20.5 20.4 20.3 20.1 20.1 20.0 20.0 20.0 20.0 20.0 20.0 20.0 20.0 20.0 20.0 20.0 20.0 20.0 20.0 20.0 20.0 20.0 20.0 20.0 20.0 20.0 20.0 20.0 20.0 20.0 20.1 20.1 20.1 20.1 20.1 20.1 20.1 20.1 20.1 20.1 20.1 20.1 20.1 20.1 20.1 20.1 20.1 20.1 20.1 20.1 20.1 20.1 20.1 20.1 20.1 20.1 20.0 20.1 20.1 20.1 20.2 20.2 20.2 20.2 20.2 20.2 20.2 20.2 20.2 20.1 20.1 20.1 20.1 20.1 20.1 20.1 20.1 20.1 20.1 20.2 20.2 20.1 20.0 20.2 20.2 20.2 20.2 20.2 20.2 20.2 20.2 20.3 20.3 20.3 20.2 20.2 20.2 20.2 20.2 20.2 20.2 20.2 20.2 20.2 20.3 20.3 20.2 20.1 20.0 20.3 20.3 20.3 20.3 20.3 20.3 20.3 20.4 20.4 20.4 20.4 20.3 20.3 20.3 20.3 20.3 20.3 20.3 20.3 20.3 20.4 20.4 20.3 20.1 20.1 20.0 20.4 20.4 20.4 20.4 20.5 20.4 20.4 20.5 20.5 20.5 20.5 20.4 20.4 20.4 20.4 20.4 20.4 20.4 20.4 20.5 20.5 20.4 20.2 20.1 20.1 20.0 20.4 20.5 20.5 20.6 20.6 20.6 20.6 20.6 20.6 20.6 20.6 20.5 20.5 20.5 20.5 20.5 20.5 20.5 20.6 20.6 20.5 20.3 20.2 20.1 20.1 20.0 20.5 20.6 20.6 20.7 20.7 20.7 20.7 20.8 20.8 20.8 20.7 20.6 20.6 20.6 20.6 20.6 20.7 20.7 20.7 20.6 20.4 20.3 20.2 20.1 20.1 20.0 20.6 20.7 20.8 20.8 20.9 20.9 20.9 21.0 21.0 20.9 20.8 20.8 20.7 20.8 20.8 20.8 20.9 20.8 20.7 20.6 20.4 20.3 20.2 20.1 20.1 20.0 20.8 20.8 20.9 21.0 21.1 21.1 21.1 21.1 21.2 21.1 21.0 20.9 20.9 21.0 21.0 21.0 21.0 20.9 20.7 20.6 20.4 20.3 20.2 20.1 20.1 20.0 20.9 21.0 21.1 21.2 21.3 21.3 21.3 21.4 21.4 21.3 21.2 21.2 21.2 21.2 21.2 21.2 21.1 20.9 20.7 20.5 20.4 20.3 20.2 20.2 20.1 20.0 21.1 21.2 21.3 21.4 21.5 21.6 21.6 21.7 21.6 21.6 21.5 21.4 21.5 21.5 21.4 21.3 21.1 20.9 20.7 20.5 20.4 20.3 20.2 20.2 20.1 20.0 21.3 21.4 21.5 21.7 21.8 21.9 22.0 22.0 21.9 21.8 21.8 21.8 21.8 21.7 21.6 21.3 21.1 20.9 20.7 20.6 20.4 20.4 20.3 20.2 20.1 20.0 21.6 21.7 21.8 22.0 22.2 22.3 22.4 22.4 22.4 22.3 22.2 22.1 22.1 21.9 21.6 21.4 21.1 20.9 20.7 20.6 20.5 20.4 20.3 20.2 20.1 20.0 21.9 22.1 22.2 22.4 22.6 22.9 23.0 23.0 22.9 22.8 22.6 22.5 22.3 22.0 21.7 21.4 21.1 20.9 20.8 20.6 20.5 20.4 20.3 20.2 20.1 20.0 22.3 22.5 22.7 22.9 23.3 23.6 23.8 23.7 23.5 23.3 23.1 22.8 22.5 22.1 21.7 21.4 21.1 21.0 20.8 20.7 20.5 20.4 20.3 20.2 20.1 20.1 22.6 22.9 23.2 23.6 24.1 24.6 24.8 24.7 24.3 23.9 23.6 23.1 22.6 22.1 21.7 21.4 21.2 21.0 20.8 20.7 20.6 20.4 20.3 20.2 20.1 20.1 23.0 23.4 23.9 24.4 25.0 25.8 27.5 27.4 25.5 24.6 24.0 23.3 22.7 22.2 21.8 21.5 21.3 21.1 20.9 20.8 20.6 20.5 20.4 20.2 20.1 20.1 23.5 24.1 24.8 27.8 29.4 30.1 55.1 55.3 29.2 25.4 24.4 23.5 22.9 22.4 22.0 21.7 21.5 21.2 21.0 20.9 20.7 20.5 20.4 20.3 20.1 20.1 24.2 25.5 29.8 43.9 48.5 65.1 125.0 116.2 50.4 28.2 24.9 24.0 23.3 22.8 22.3 22.0 21.7 21.4 21.2 20.9 20.7 20.6 20.4 20.3 20.2 20.1 25.0 26.8 33.1 73.3 132.9 206.8 248.3 150.4 55.3 30.0 25.7 24.7 23.9 23.2 22.6 22.2 21.8 21.5 21.2 21.0 20.7 20.6 20.4 20.3 20.2 20.1 25.9 27.5 31.3 67.9 169.6 385.9 417.9 155.3 40.3 29.8 26.4 25.2 24.3 23.4 22.7 22.2 21.8 21.5 21.2 21.0 20.7 20.6 20.4 20.3 20.2 20.1 26.3 27.9 30.1 41.6 93.3 307.0 387.1 140.4 36.3 28.9 26.2 24.9 24.0 23.3 22.7 22.2 21.8 21.5 21.2 21.0 20.8 20.6 20.4 20.3 20.2 20.1 25.7 26.8 29.7 38.4 56.2 123.2 162.7 84.4 31.4 27.0 25.4 24.3 23.5 23.0 22.5 22.1 21.7 21.4 21.1 21.0 20.8 20.6 20.4 20.3 20.1 20.1 24.5 25.2 27.8 35.5 38.6 40.7 52.7 44.6 27.5 25.5 24.5 23.7 23.1 22.6 22.2 21.9 21.6 21.3 21.1 20.9 20.7 20.6 20.4 20.3 20.1 20.1 22.9 24.3 25.2 28.3 29.9 29.3 30.5 29.0 25.9 24.7 23.9 23.2 22.7 22.3 22.0 21.7 21.4 21.2 21.0 20.8 20.7 20.5 20.4 20.3 20.1 20.1 20.0 20.0 20.0 20.0 20.0 20.0 20.0 20.0 20.0 20.0 20.0 20.0 20.0 20.0 20.0 20.0 20.0 20.0 20.0 20.0 20.0 20.0 20.0 20.0 20.0 20.1 20.1 20.1 20.1 20.1 20.1 20.1 20.1 20.1 20.1 20.1 20.1 20.1 20.1 20.1 20.1 20.1 20.1 20.0 20.0 20.0 20.0 20.0 20.1 20.1 20.1 20.0 20.1 20.1 20.1 20.1 20.1 20.1 20.1 20.1 20.2 20.2 20.1 20.1 20.1 20.1 20.1 20.1 20.1 20.1 20.1 20.1 20.1 20.1 20.2 20.2 20.1 20.0 20.2 20.2 20.2 20.2 20.2 20.2 20.2 20.2 20.2 20.2 20.2 20.2 20.2 20.2 20.2 20.2 20.2 20.2 20.2 20.2 20.2 20.2 20.2 20.2 20.1 20.0 20.2 20.3 20.3 20.3 20.3 20.3 20.3 20.3 20.4 20.3 20.3 20.3 20.3 20.2 20.2 20.2 20.2 20.2 20.3 20.3 20.3 20.3 20.2 20.1 20.1 20.0 20.3 20.3 20.4 20.4 20.4 20.4 20.4 20.5 20.5 20.5 20.4 20.4 20.3 20.3 20.3 20.3 20.3 20.4 20.4 20.4 20.4 20.3 20.2 20.1 20.0 20.0 20.4 20.4 20.5 20.5 20.6 20.6 20.6 20.6 20.6 20.6 20.5 20.5 20.4 20.4 20.4 20.5 20.5 20.5 20.5 20.5 20.4 20.3 20.2 20.1 20.0 20.0 20.5 20.5 20.6 20.7 20.7 20.7 20.7 20.8 20.8 20.7 20.6 20.6 20.6 20.6 20.6 20.6 20.6 20.7 20.6 20.5 20.4 20.3 20.2 20.1 20.1 20.0 20.6 20.7 20.7 20.8 20.9 20.9 20.9 20.9 20.9 20.9 20.8 20.7 20.7 20.8 20.8 20.8 20.8 20.8 20.7 20.5 20.4 20.3 20.2 20.1 20.1 20.0 20.7 20.8 20.9 21.0 21.1 21.1 21.1 21.1 21.1 21.1 21.0 20.9 20.9 21.0 21.0 21.0 20.9 20.8 20.7 20.5 20.4 20.3 20.2 20.1 20.1 20.0 20.9 21.0 21.1 21.2 21.3 21.3 21.4 21.4 21.4 21.3 21.2 21.2 21.2 21.2 21.2 21.1 21.0 20.9 20.7 20.5 20.4 20.3 20.2 20.1 20.1 20.0 21.1 21.2 21.3 21.4 21.5 21.6 21.7 21.7 21.7 21.6 21.5 21.5 21.5 21.5 21.4 21.2 21.1 20.9 20.7 20.5 20.4 20.3 20.2 20.1 20.1 20.0 21.4 21.5 21.6 21.7 21.9 22.0 22.1 22.1 22.1 21.9 21.9 21.8 21.8 21.7 21.5 21.3 21.1 20.9 20.7 20.5 20.4 20.3 20.2 20.1 20.1 20.0 21.7 21.8 21.9 22.1 22.4 22.5 22.7 22.7 22.6 22.4 22.3 22.2 22.1 21.9 21.6 21.4 21.1 20.9 20.7 20.5 20.4 20.3 20.2 20.2 20.1 20.0 22.0 22.2 22.3 22.6 22.9 23.2 23.4 23.4 23.1 22.9 22.8 22.6 22.3 22.1 21.7 21.4 21.1 20.9 20.7 20.6 20.5 20.4 20.3 20.2 20.1 20.0 22.3 22.6 22.9 23.2 23.6 24.1 24.4 24.2 23.8 23.5 23.3 22.9 22.6 22.2 21.8 21.5 21.2 20.9 20.8 20.6 20.5 20.4 20.3 20.2 20.1 20.0 22.8 23.1 23.5 24.0 24.7 25.5 25.9 25.5 24.7 24.2 23.8 23.3 22.8 22.3 21.9 21.5 21.2 21.0 20.8 20.7 20.5 20.4 20.3 20.2 20.1 20.0 23.2 23.7 24.3 25.6 26.7 28.1 31.2 30.1 26.4 25.0 24.3 23.6 23.0 22.4 22.0 21.6 21.3 21.1 20.9 20.7 20.6 20.4 20.3 20.2 20.1 20.1 23.8 24.6 25.8 30.4 33.4 35.3 68.3 68.7 32.8 26.0 24.8 23.9 23.2 22.6 22.1 21.8 21.5 21.2 21.0 20.8 20.7 20.5 20.4 20.2 20.1 20.1 24.6 27.2 33.1 51.6 64.1 88.0 171.3 157.8 59.7 29.2 25.5 24.4 23.6 23.0 22.5 22.0 21.7 21.4 21.2 20.9 20.7 20.6 20.4 20.3 20.1 20.1 25.7 31.0 41.0 103.0 194.6 273.3 309.1 198.1 65.5 31.6 26.4 25.2 24.2 23.5 22.8 22.3 21.9 21.5 21.2 21.0 20.7 20.6 20.4 20.3 20.1 20.1 26.8 31.7 40.3 110.7 254.6 395.8 401.5 208.4 54.6 32.4 27.4 25.8 24.7 23.7 23.0 22.4 21.9 21.5 21.2 21.0 20.7 20.6 20.4 20.3 20.1 20.1 27.3 30.1 36.3 73.3 166.3 323.3 384.7 228.1 74.1 35.0 27.3 25.6 24.5 23.6 22.9 22.4 21.9 21.5 21.2 21.0 20.8 20.6 20.4 20.3 20.1 20.1 26.5 28.0 33.5 62.4 97.4 166.5 224.1 154.6 61.3 32.0 26.3 24.8 24.0 23.2 22.7 22.2 21.8 21.5 21.2 20.9 20.8 20.6 20.4 20.3 20.1 20.1 25.0 25.8 29.6 50.6 56.4 50.7 71.3 59.7 30.5 26.5 25.2 24.2 23.4 22.8 22.4 22.0 21.7 21.4 21.1 20.9 20.7 20.5 20.4 20.2 20.1 20.1 23.1 24.7 25.9 32.6 34.7 31.6 33.0 30.7 26.7 25.3 24.4 23.6 23.0 22.5 22.1 21.7 21.5 21.2 21.0 20.8 20.6 20.5 20.3 20.2 20.1 20.1 20.0 20.0 20.0 20.0 20.0 20.0 20.0 20.0 20.0 20.0 20.0 20.0 20.0 20.0 20.0 20.0 20.0 20.0 20.0 20.0 20.0 20.0 20.0 20.0 20.0 20.0 20.1 20.1 20.1 20.1 20.1 20.1 20.1 20.1 20.1 20.1 20.1 20.1 20.1 20.1 20.0 20.0 20.0 20.0 20.0 20.0 20.0 20.0 20.1 20.1 20.1 20.0 20.1 20.1 20.1 20.1 20.1 20.1 20.1 20.1 20.2 20.2 20.1 20.1 20.1 20.1 20.1 20.1 20.1 20.1 20.1 20.1 20.1 20.1 20.1 20.1 20.1 20.0 20.2 20.2 20.2 20.2 20.2 20.2 20.2 20.2 20.3 20.2 20.2 20.2 20.2 20.2 20.2 20.2 20.2 20.2 20.2 20.2 20.2 20.2 20.2 20.1 20.1 20.0 20.2 20.3 20.3 20.3 20.3 20.3 20.3 20.3 20.4 20.4 20.3 20.3 20.3 20.2 20.2 20.2 20.2 20.2 20.3 20.3 20.3 20.3 20.2 20.1 20.1 20.0 20.3 20.4 20.4 20.4 20.4 20.4 20.4 20.5 20.5 20.5 20.4 20.4 20.4 20.3 20.3 20.3 20.3 20.4 20.4 20.4 20.4 20.3 20.2 20.1 20.0 20.0 20.4 20.4 20.5 20.6 20.6 20.6 20.6 20.6 20.6 20.6 20.5 20.5 20.5 20.5 20.5 20.5 20.5 20.5 20.5 20.5 20.4 20.3 20.2 20.1 20.0 20.0 20.5 20.6 20.6 20.7 20.7 20.7 20.8 20.8 20.8 20.7 20.7 20.6 20.6 20.6 20.6 20.6 20.6 20.6 20.6 20.5 20.4 20.3 20.2 20.1 20.0 20.0 20.6 20.7 20.8 20.9 20.9 20.9 20.9 21.0 21.0 20.9 20.8 20.8 20.8 20.8 20.8 20.8 20.8 20.7 20.6 20.5 20.4 20.3 20.2 20.1 20.1 20.0 20.8 20.8 20.9 21.0 21.1 21.1 21.2 21.2 21.2 21.1 21.0 21.0 21.0 21.0 21.0 20.9 20.9 20.8 20.6 20.5 20.4 20.3 20.2 20.1 20.1 20.0 21.0 21.0 21.1 21.2 21.3 21.4 21.5 21.5 21.5 21.4 21.3 21.2 21.2 21.2 21.2 21.1 21.0 20.8 20.7 20.5 20.4 20.3 20.2 20.1 20.1 20.0 21.2 21.3 21.4 21.5 21.6 21.7 21.8 21.9 21.8 21.7 21.6 21.5 21.5 21.4 21.3 21.2 21.0 20.9 20.7 20.5 20.4 20.3 20.2 20.1 20.1 20.0 21.4 21.5 21.6 21.8 22.0 22.2 22.3 22.3 22.2 22.1 22.0 21.9 21.8 21.7 21.5 21.3 21.1 20.9 20.7 20.5 20.4 20.3 20.2 20.1 20.1 20.0 21.7 21.9 22.0 22.2 22.5 22.7 22.9 23.0 22.8 22.5 22.4 22.2 22.1 21.9 21.6 21.4 21.2 20.9 20.7 20.6 20.5 20.3 20.2 20.2 20.1 20.0 22.0 22.2 22.5 22.7 23.1 23.4 23.7 23.7 23.4 23.1 22.8 22.6 22.4 22.1 21.8 21.5 21.2 21.0 20.8 20.6 20.5 20.4 20.3 20.2 20.1 20.0 22.4 22.7 23.0 23.4 23.8 24.3 24.7 24.6 24.1 23.7 23.4 23.0 22.7 22.3 21.9 21.6 21.3 21.0 20.8 20.6 20.5 20.4 20.3 20.2 20.1 20.0 22.8 23.2 24.1 24.8 25.3 26.5 26.9 26.0 25.1 24.5 24.0 23.4 22.9 22.5 22.0 21.6 21.3 21.1 20.9 20.7 20.5 20.4 20.3 20.2 20.1 20.0 23.4 24.0 25.6 27.3 28.0 30.3 32.8 30.4 26.8 25.4 24.6 23.9 23.2 22.6 22.1 21.7 21.4 21.2 20.9 20.8 20.6 20.5 20.3 20.2 20.1 20.1 24.1 25.3 27.5 30.9 33.5 39.7 54.3 50.1 32.0 26.5 25.3 24.4 23.6 22.9 22.3 21.9 21.6 21.3 21.1 20.9 20.7 20.5 20.4 20.2 20.1 20.1 25.3 29.3 34.8 44.9 60.7 79.6 114.9 99.5 45.6 29.3 26.4 24.9 24.0 23.2 22.6 22.2 21.8 21.5 21.2 21.0 20.8 20.6 20.4 20.3 20.1 20.1 30.3 46.9 63.2 114.8 194.9 223.4 213.2 138.5 53.0 33.2 28.2 25.8 24.6 23.7 23.0 22.4 22.0 21.6 21.3 21.0 20.8 20.6 20.4 20.3 20.1 20.1 36.4 64.2 96.9 181.8 306.4 360.2 327.3 193.7 68.3 37.3 29.3 26.6 25.2 24.1 23.2 22.6 22.1 21.7 21.3 21.0 20.8 20.6 20.4 20.2 20.1 20.1 37.1 63.6 100.2 167.3 245.9 323.2 359.6 262.9 114.5 41.4 28.7 26.5 25.0 24.0 23.1 22.5 22.1 21.6 21.3 21.0 20.8 20.6 20.4 20.2 20.1 20.1 31.7 46.7 66.1 108.3 135.8 166.9 211.8 183.3 94.9 35.8 27.2 25.6 24.5 23.5 22.9 22.3 21.9 21.6 21.3 21.0 20.8 20.6 20.4 20.2 20.1 20.1 26.0 29.6 33.7 55.1 63.7 55.0 63.8 58.5 37.6 27.4 25.9 24.7 23.8 23.1 22.5 22.1 21.7 21.4 21.2 20.9 20.7 20.5 20.4 20.2 20.1 20.1 23.4 25.2 26.4 32.2 34.8 33.2 33.3 30.6 27.5 25.9 24.9 24.0 23.3 22.7 22.2 21.9 21.5 21.3 21.0 20.8 20.7 20.5 20.3 20.2 20.1 20.1 20.0 20.0 20.0 20.0 20.0 20.0 20.0 20.0 20.0 20.0 20.0 20.0 20.0 20.0 20.0 20.0 20.0 20.0 20.0 20.0 20.0 20.0 20.0 20.0 20.0 20.0 20.1 20.1 20.1 20.1 20.1 20.1 20.1 20.1 20.1 20.1 20.1 20.1 20.1 20.1 20.1 20.1 20.1 20.1 20.1 20.0 20.0 20.1 20.1 20.1 20.1 20.0 20.1 20.1 20.2 20.2 20.2 20.1 20.1 20.2 20.2 20.2 20.2 20.1 20.1 20.1 20.1 20.1 20.1 20.1 20.1 20.1 20.1 20.1 20.1 20.1 20.1 20.0 20.2 20.2 20.2 20.3 20.3 20.2 20.2 20.3 20.3 20.3 20.2 20.2 20.2 20.2 20.2 20.2 20.2 20.2 20.2 20.2 20.2 20.2 20.2 20.2 20.1 20.0 20.3 20.3 20.3 20.4 20.4 20.4 20.4 20.4 20.4 20.4 20.4 20.3 20.3 20.3 20.3 20.3 20.3 20.3 20.3 20.3 20.3 20.3 20.2 20.1 20.1 20.0 20.4 20.4 20.5 20.5 20.5 20.5 20.5 20.5 20.6 20.5 20.5 20.4 20.4 20.4 20.4 20.4 20.4 20.4 20.4 20.4 20.4 20.3 20.2 20.1 20.1 20.0 20.5 20.5 20.6 20.6 20.6 20.6 20.7 20.7 20.7 20.7 20.6 20.6 20.6 20.5 20.5 20.5 20.5 20.5 20.5 20.5 20.4 20.3 20.2 20.1 20.1 20.0 20.6 20.6 20.7 20.8 20.8 20.8 20.8 20.9 20.9 20.8 20.8 20.7 20.7 20.7 20.7 20.7 20.7 20.6 20.6 20.5 20.4 20.3 20.2 20.1 20.1 20.0 20.7 20.8 20.9 20.9 21.0 21.0 21.0 21.1 21.1 21.0 21.0 20.9 20.9 20.9 20.8 20.8 20.8 20.7 20.6 20.5 20.4 20.3 20.2 20.1 20.1 20.0 20.9 20.9 21.0 21.1 21.2 21.2 21.3 21.4 21.3 21.3 21.2 21.1 21.1 21.1 21.0 21.0 20.9 20.8 20.7 20.5 20.4 20.3 20.2 20.1 20.1 20.0 21.1 21.1 21.2 21.3 21.4 21.5 21.6 21.6 21.6 21.5 21.4 21.4 21.3 21.3 21.2 21.1 21.0 20.9 20.7 20.6 20.4 20.3 20.2 20.1 20.1 20.0 21.3 21.4 21.5 21.6 21.7 21.8 21.9 22.0 22.0 21.8 21.7 21.6 21.6 21.5 21.4 21.2 21.1 20.9 20.8 20.6 20.5 20.4 20.2 20.2 20.1 20.0 21.5 21.6 21.8 21.9 22.1 22.2 22.5 22.5 22.4 22.2 22.1 21.9 21.8 21.7 21.5 21.3 21.2 21.0 20.8 20.7 20.5 20.4 20.3 20.2 20.1 20.0 21.8 22.0 22.1 22.3 22.5 22.7 23.0 23.1 22.9 22.7 22.5 22.3 22.1 21.9 21.7 21.5 21.2 21.0 20.9 20.7 20.5 20.4 20.3 20.2 20.1 20.0 22.1 22.3 22.6 22.8 23.1 23.3 23.7 23.8 23.5 23.2 22.9 22.6 22.4 22.1 21.8 21.6 21.3 21.1 20.9 20.7 20.6 20.4 20.3 20.2 20.1 20.0 22.5 22.9 23.3 23.5 23.8 24.1 24.7 24.7 24.3 23.8 23.5 23.1 22.7 22.4 22.0 21.7 21.4 21.2 21.0 20.8 20.6 20.4 20.3 20.2 20.1 20.0 23.0 24.0 25.1 25.4 25.7 26.8 27.1 26.3 25.4 24.6 24.1 23.6 23.1 22.6 22.2 21.8 21.5 21.2 21.0 20.8 20.6 20.5 20.3 20.2 20.1 20.0 23.8 25.6 28.3 28.8 27.1 29.1 31.6 29.3 26.8 25.6 24.8 24.1 23.4 22.8 22.3 21.9 21.6 21.3 21.1 20.8 20.7 20.5 20.4 20.2 20.1 20.1 24.9 27.6 31.7 32.6 29.3 36.2 45.2 39.3 31.1 27.5 25.6 24.6 23.8 23.1 22.6 22.1 21.8 21.5 21.2 21.0 20.8 20.6 20.4 20.3 20.1 20.1 28.0 34.4 42.2 48.1 47.6 60.2 76.2 64.8 46.5 36.3 29.5 25.3 24.3 23.5 22.9 22.4 22.0 21.7 21.4 21.1 20.9 20.7 20.5 20.3 20.1 20.1 37.6 67.9 99.1 143.5 150.9 123.5 123.0 96.8 58.9 42.4 32.4 26.4 24.9 24.0 23.3 22.7 22.2 21.8 21.4 21.2 20.9 20.6 20.5 20.3 20.1 20.1 45.3 104.5 179.8 259.1 248.4 210.3 230.6 167.8 77.4 41.9 31.1 27.1 25.5 24.3 23.5 22.8 22.2 21.8 21.4 21.2 20.9 20.6 20.4 20.3 20.1 20.1 43.4 107.6 197.5 258.9 214.5 225.3 302.3 231.5 105.1 40.1 29.2 26.9 25.4 24.3 23.4 22.7 22.2 21.8 21.4 21.1 20.9 20.6 20.4 20.3 20.1 20.1 35.2 78.7 127.7 149.0 121.4 135.3 182.5 153.9 82.8 33.1 27.4 26.0 24.7 23.8 23.1 22.5 22.1 21.7 21.4 21.1 20.9 20.7 20.5 20.3 20.1 20.1 27.2 43.6 54.4 53.9 53.6 53.7 53.8 50.6 39.5 27.6 26.0 25.0 24.0 23.3 22.7 22.3 21.9 21.6 21.3 21.0 20.8 20.6 20.4 20.3 20.1 20.1 23.6 28.4 30.9 30.7 31.7 33.3 33.0 30.3 27.9 26.2 25.2 24.3 23.6 23.0 22.4 22.0 21.7 21.4 21.2 20.9 20.8 20.6 20.4 20.2 20.1 20.1 20.0 20.0 20.0 20.0 20.0 20.0 20.0 20.0 20.0 20.0 20.0 20.0 20.0 20.0 20.0 20.0 20.0 20.0 20.0 20.0 20.0 20.0 20.0 20.0 20.1 20.1 20.1 20.1 20.1 20.1 20.1 20.1 20.1 20.1 20.1 20.1 20.1 20.1 20.1 20.1 20.1 20.1 20.1 20.1 20.1 20.1 20.1 20.1 20.1 20.1 20.1 20.1 20.1 20.2 20.2 20.2 20.2 20.2 20.2 20.2 20.2 20.2 20.2 20.2 20.1 20.1 20.1 20.1 20.1 20.1 20.1 20.1 20.1 20.2 20.2 20.2 20.1 20.0 20.2 20.2 20.3 20.3 20.3 20.3 20.3 20.3 20.3 20.3 20.3 20.3 20.2 20.2 20.2 20.2 20.2 20.2 20.2 20.2 20.2 20.3 20.2 20.2 20.1 20.0 20.3 20.3 20.4 20.4 20.4 20.4 20.4 20.4 20.5 20.4 20.4 20.4 20.3 20.3 20.3 20.4 20.4 20.4 20.3 20.3 20.3 20.3 20.3 20.2 20.1 20.0 20.4 20.5 20.5 20.5 20.5 20.5 20.5 20.6 20.6 20.6 20.5 20.5 20.5 20.5 20.5 20.5 20.5 20.5 20.5 20.4 20.4 20.4 20.3 20.1 20.1 20.0 20.5 20.6 20.6 20.7 20.7 20.7 20.7 20.7 20.8 20.7 20.7 20.7 20.7 20.7 20.6 20.6 20.6 20.6 20.6 20.5 20.5 20.4 20.2 20.1 20.1 20.0 20.6 20.7 20.8 20.8 20.8 20.8 20.9 20.9 21.0 20.9 20.9 20.9 20.8 20.8 20.8 20.8 20.7 20.7 20.6 20.6 20.5 20.4 20.2 20.1 20.1 20.0 20.8 20.8 20.9 21.0 21.0 21.0 21.1 21.2 21.2 21.2 21.1 21.1 21.0 21.0 21.0 20.9 20.9 20.8 20.7 20.6 20.5 20.4 20.3 20.2 20.1 20.0 21.0 21.0 21.1 21.2 21.2 21.3 21.4 21.5 21.5 21.4 21.3 21.3 21.3 21.2 21.1 21.1 21.0 20.9 20.8 20.6 20.5 20.4 20.3 20.2 20.1 20.0 21.2 21.3 21.4 21.4 21.5 21.6 21.7 21.8 21.8 21.7 21.6 21.6 21.5 21.4 21.3 21.2 21.1 21.0 20.8 20.7 20.6 20.4 20.3 20.2 20.1 20.0 21.4 21.5 21.6 21.7 21.8 21.9 22.1 22.2 22.1 22.0 21.9 21.8 21.7 21.6 21.5 21.3 21.2 21.0 20.9 20.7 20.6 20.4 20.3 20.2 20.1 20.0 21.7 21.8 21.9 22.0 22.1 22.3 22.6 22.7 22.6 22.4 22.2 22.1 21.9 21.8 21.6 21.5 21.3 21.1 20.9 20.8 20.6 20.5 20.3 20.2 20.1 20.0 21.9 22.1 22.3 22.4 22.5 22.7 23.1 23.2 23.0 22.8 22.6 22.4 22.2 22.0 21.8 21.6 21.4 21.2 21.0 20.8 20.6 20.5 20.3 20.2 20.1 20.0 22.2 22.5 22.7 22.8 23.0 23.3 23.7 23.9 23.6 23.3 23.0 22.7 22.5 22.2 22.0 21.7 21.5 21.3 21.1 20.9 20.7 20.5 20.3 20.2 20.1 20.0 22.7 23.5 23.9 23.6 23.7 24.0 24.6 24.7 24.4 23.9 23.5 23.2 22.8 22.5 22.2 21.9 21.6 21.4 21.1 20.9 20.7 20.5 20.4 20.2 20.1 20.1 25.3 27.3 27.2 26.2 25.6 26.1 26.7 26.4 25.6 24.7 24.1 23.6 23.1 22.7 22.4 22.0 21.7 21.4 21.1 20.9 20.7 20.5 20.4 20.2 20.1 20.1 30.4 33.7 33.1 28.7 25.9 27.6 29.4 28.6 27.1 25.7 24.8 24.1 23.5 23.0 22.5 22.1 21.8 21.5 21.2 21.0 20.8 20.6 20.4 20.3 20.1 20.1 36.9 39.9 39.2 31.1 26.5 32.8 38.3 36.5 34.4 30.3 25.8 24.7 23.9 23.3 22.8 22.3 22.0 21.6 21.3 21.1 20.9 20.7 20.5 20.3 20.2 20.1 51.3 58.2 55.4 42.8 33.7 41.7 52.1 56.4 59.0 47.4 31.5 25.5 24.4 23.7 23.1 22.6 22.2 21.8 21.5 21.2 21.0 20.7 20.5 20.3 20.2 20.1 72.1 106.6 127.5 113.7 74.1 66.4 82.7 83.4 77.0 56.0 35.4 26.7 25.1 24.1 23.4 22.9 22.4 21.9 21.5 21.2 21.0 20.7 20.5 20.3 20.1 20.1 77.2 151.2 228.0 208.2 130.4 140.4 179.2 138.2 79.5 46.9 32.5 27.5 25.6 24.5 23.6 23.0 22.4 21.9 21.5 21.2 20.9 20.7 20.5 20.3 20.1 20.1 66.9 155.5 252.4 216.9 131.6 174.8 236.0 167.9 72.9 37.9 29.4 27.1 25.5 24.4 23.6 22.9 22.3 21.9 21.5 21.2 20.9 20.7 20.5 20.3 20.1 20.1 47.6 117.1 172.6 134.0 83.8 107.0 140.8 104.4 51.3 30.9 27.2 26.1 25.0 24.0 23.3 22.7 22.2 21.8 21.5 21.2 20.9 20.7 20.5 20.3 20.1 20.1 30.0 61.2 76.7 56.2 44.6 45.9 47.0 41.0 33.5 27.4 26.0 25.1 24.3 23.5 22.9 22.5 22.1 21.7 21.4 21.2 20.9 20.7 20.5 20.3 20.1 20.1 24.1 31.0 34.6 31.8 31.1 32.2 31.5 29.2 27.6 26.2 25.3 24.5 23.8 23.2 22.7 22.3 21.9 21.6 21.3 21.1 20.9 20.7 20.5 20.3 20.1 20.1 20.0 20.0 20.0 20.0 20.0 20.0 20.0 20.0 20.0 20.0 20.0 20.0 20.0 20.0 20.0 20.0 20.0 20.0 20.0 20.0 20.0 20.0 20.0 20.1 20.1 20.1 20.1 20.1 20.1 20.1 20.1 20.1 20.1 20.1 20.1 20.1 20.1 20.1 20.1 20.1 20.1 20.1 20.1 20.1 20.1 20.1 20.1 20.1 20.1 20.1 20.1 20.1 20.2 20.2 20.2 20.2 20.2 20.2 20.2 20.2 20.2 20.2 20.2 20.2 20.2 20.2 20.2 20.2 20.2 20.2 20.2 20.2 20.2 20.2 20.2 20.2 20.1 20.1 20.2 20.3 20.3 20.3 20.3 20.3 20.3 20.3 20.3 20.3 20.3 20.3 20.3 20.3 20.3 20.3 20.3 20.3 20.3 20.3 20.3 20.3 20.3 20.2 20.1 20.0 20.3 20.4 20.4 20.4 20.4 20.4 20.4 20.4 20.5 20.5 20.4 20.4 20.4 20.4 20.4 20.4 20.4 20.4 20.4 20.4 20.4 20.4 20.3 20.2 20.1 20.0 20.4 20.5 20.5 20.5 20.5 20.5 20.5 20.6 20.6 20.6 20.6 20.6 20.6 20.6 20.6 20.6 20.6 20.6 20.6 20.5 20.5 20.4 20.3 20.2 20.1 20.0 20.5 20.6 20.6 20.7 20.7 20.7 20.7 20.8 20.8 20.8 20.8 20.8 20.8 20.8 20.8 20.8 20.7 20.7 20.7 20.6 20.5 20.4 20.3 20.2 20.1 20.0 20.7 20.7 20.8 20.8 20.8 20.8 20.9 21.0 21.0 21.0 21.0 21.0 21.0 21.0 20.9 20.9 20.9 20.8 20.8 20.7 20.6 20.4 20.3 20.2 20.1 20.0 20.8 20.9 21.0 21.0 21.0 21.1 21.1 21.2 21.3 21.3 21.2 21.2 21.2 21.2 21.1 21.1 21.0 20.9 20.8 20.7 20.6 20.5 20.3 20.2 20.1 20.0 21.0 21.1 21.2 21.2 21.3 21.3 21.4 21.5 21.6 21.6 21.5 21.5 21.4 21.4 21.3 21.2 21.1 21.0 20.9 20.8 20.6 20.5 20.3 20.2 20.1 20.0 21.3 21.3 21.4 21.5 21.6 21.7 21.8 21.9 21.9 21.9 21.8 21.7 21.7 21.6 21.5 21.4 21.2 21.1 21.0 20.8 20.7 20.5 20.3 20.2 20.1 20.0 21.5 21.6 21.7 21.8 21.9 22.0 22.2 22.3 22.3 22.2 22.1 22.0 21.9 21.8 21.6 21.5 21.3 21.2 21.0 20.9 20.7 20.5 20.4 20.2 20.1 20.1 21.7 21.9 22.0 22.1 22.2 22.4 22.7 22.8 22.7 22.6 22.4 22.3 22.1 22.0 21.8 21.6 21.5 21.3 21.1 20.9 20.7 20.5 20.4 20.2 20.1 20.1 22.0 22.2 22.3 22.5 22.6 22.9 23.2 23.3 23.2 23.0 22.8 22.5 22.4 22.2 22.0 21.8 21.6 21.4 21.2 21.0 20.7 20.5 20.4 20.2 20.1 20.1 22.3 22.6 22.9 22.9 23.1 23.4 23.7 23.9 23.7 23.4 23.1 22.9 22.6 22.4 22.2 21.9 21.7 21.5 21.2 21.0 20.8 20.6 20.4 20.2 20.1 20.1 23.2 24.7 25.0 23.9 23.6 24.1 24.5 24.7 24.4 24.0 23.6 23.3 23.0 22.6 22.3 22.1 21.8 21.5 21.3 21.0 20.8 20.6 20.4 20.3 20.1 20.1 27.3 31.8 31.0 27.1 25.3 25.4 26.0 26.2 25.7 24.7 24.1 23.7 23.3 22.9 22.5 22.2 21.9 21.6 21.3 21.0 20.8 20.6 20.4 20.3 20.1 20.1 37.6 42.1 36.1 27.6 26.8 27.4 27.5 27.7 27.0 25.7 24.8 24.2 23.6 23.1 22.7 22.4 22.0 21.7 21.4 21.1 20.8 20.6 20.5 20.3 20.1 20.1 49.7 51.7 39.9 27.0 29.5 32.6 32.2 33.2 35.1 31.2 25.6 24.7 24.1 23.5 23.0 22.6 22.2 21.8 21.5 21.2 20.9 20.7 20.5 20.3 20.2 20.1 68.7 77.8 56.3 33.4 37.8 42.5 43.0 55.4 64.7 47.9 29.3 25.4 24.5 23.8 23.3 22.8 22.3 21.9 21.5 21.3 21.0 20.8 20.5 20.3 20.2 20.1 102.1 139.7 112.6 63.3 67.1 78.8 75.6 87.1 88.8 59.0 33.7 26.9 25.2 24.3 23.5 23.0 22.5 22.0 21.6 21.3 21.0 20.8 20.5 20.3 20.1 20.1 128.0 200.4 185.1 110.2 122.6 160.6 151.2 117.2 79.1 51.9 33.2 27.8 25.7 24.6 23.7 23.1 22.6 22.0 21.6 21.2 21.0 20.7 20.5 20.3 20.1 20.1 129.2 211.9 202.9 112.3 119.4 167.4 164.0 110.8 56.3 40.7 29.8 27.2 25.6 24.5 23.7 23.0 22.5 22.0 21.6 21.2 21.0 20.7 20.5 20.3 20.1 20.1 90.2 157.2 155.3 80.5 65.3 84.0 88.6 65.8 38.6 32.1 27.2 26.1 25.1 24.1 23.4 22.8 22.4 21.9 21.6 21.3 21.0 20.7 20.5 20.3 20.2 20.1 41.7 73.4 80.2 52.7 39.9 38.5 40.6 36.2 30.1 27.4 26.0 25.2 24.5 23.7 23.2 22.6 22.2 21.9 21.5 21.2 21.0 20.7 20.5 20.3 20.2 20.1 24.7 30.5 33.9 32.4 31.1 30.7 30.0 28.7 27.4 26.2 25.3 24.7 24.0 23.5 23.0 22.5 22.1 21.7 21.4 21.1 20.9 20.7 20.5 20.3 20.2 20.1 20.0 20.0 20.0 20.0 20.0 20.0 20.0 20.0 20.0 20.0 20.0 20.0 20.0 20.0 20.0 20.0 20.0 20.0 20.0 20.0 20.0 20.0 20.0 20.1 20.1 20.1 20.1 20.1 20.1 20.1 20.1 20.1 20.1 20.1 20.1 20.1 20.1 20.1 20.1 20.1 20.1 20.1 20.1 20.1 20.1 20.1 20.1 20.1 20.1 20.1 20.1 20.1 20.2 20.2 20.2 20.2 20.2 20.2 20.2 20.2 20.2 20.2 20.2 20.2 20.2 20.2 20.2 20.2 20.2 20.2 20.2 20.2 20.2 20.2 20.3 20.2 20.1 20.1 20.2 20.3 20.3 20.3 20.3 20.3 20.3 20.3 20.3 20.3 20.3 20.3 20.3 20.3 20.3 20.3 20.3 20.3 20.3 20.4 20.4 20.4 20.4 20.3 20.1 20.1 20.3 20.4 20.4 20.4 20.4 20.4 20.4 20.4 20.5 20.5 20.4 20.4 20.4 20.4 20.5 20.5 20.5 20.5 20.5 20.5 20.5 20.5 20.4 20.2 20.1 20.0 20.4 20.5 20.5 20.5 20.5 20.5 20.5 20.6 20.6 20.6 20.6 20.6 20.6 20.7 20.7 20.7 20.7 20.7 20.7 20.6 20.6 20.5 20.4 20.2 20.1 20.0 20.5 20.6 20.6 20.7 20.7 20.7 20.7 20.8 20.9 20.9 20.9 20.9 20.9 20.9 20.9 20.9 20.9 20.8 20.8 20.7 20.7 20.5 20.4 20.2 20.1 20.0 20.7 20.7 20.8 20.8 20.8 20.9 20.9 21.0 21.1 21.1 21.1 21.1 21.1 21.1 21.1 21.1 21.0 21.0 20.9 20.8 20.7 20.5 20.4 20.2 20.1 20.0 20.9 20.9 21.0 21.1 21.1 21.1 21.2 21.3 21.4 21.4 21.4 21.4 21.4 21.3 21.3 21.2 21.2 21.1 21.0 20.9 20.7 20.6 20.4 20.2 20.1 20.1 21.1 21.2 21.2 21.3 21.4 21.4 21.5 21.6 21.7 21.7 21.7 21.6 21.6 21.5 21.5 21.4 21.3 21.2 21.1 20.9 20.8 20.6 20.4 20.2 20.1 20.1 21.3 21.4 21.5 21.6 21.7 21.8 21.9 22.0 22.1 22.0 22.0 21.9 21.8 21.7 21.6 21.5 21.4 21.3 21.1 21.0 20.8 20.6 20.4 20.2 20.1 20.1 21.6 21.7 21.8 21.9 22.0 22.2 22.3 22.4 22.4 22.4 22.3 22.2 22.0 21.9 21.8 21.7 21.5 21.4 21.2 21.0 20.8 20.6 20.4 20.2 20.1 20.1 21.8 22.0 22.1 22.2 22.4 22.5 22.7 22.9 22.8 22.7 22.6 22.4 22.3 22.1 22.0 21.8 21.7 21.5 21.3 21.1 20.8 20.6 20.4 20.2 20.1 20.1 22.1 22.3 22.4 22.6 22.8 23.0 23.3 23.4 23.3 23.1 22.9 22.7 22.5 22.4 22.2 22.0 21.8 21.6 21.3 21.1 20.9 20.6 20.4 20.2 20.1 20.1 22.4 22.8 23.0 23.0 23.2 23.5 23.7 23.9 23.9 23.6 23.3 23.1 22.8 22.6 22.4 22.1 21.9 21.6 21.4 21.1 20.9 20.6 20.4 20.3 20.1 20.1 23.5 25.3 25.3 23.9 23.7 24.1 24.5 24.7 24.5 24.1 23.7 23.4 23.1 22.8 22.5 22.3 22.0 21.7 21.4 21.1 20.9 20.6 20.4 20.3 20.1 20.1 27.3 33.5 32.6 26.9 25.1 25.0 25.4 25.8 25.5 24.8 24.3 23.8 23.5 23.1 22.7 22.4 22.1 21.8 21.5 21.2 20.9 20.6 20.4 20.3 20.1 20.1 39.2 44.9 37.7 28.1 27.6 26.7 26.4 26.9 26.6 25.5 24.8 24.3 23.8 23.4 23.0 22.6 22.3 21.9 21.6 21.2 20.9 20.7 20.5 20.3 20.1 20.1 52.1 57.6 43.5 30.2 32.5 30.6 29.5 30.5 31.6 29.0 25.7 24.8 24.2 23.7 23.2 22.8 22.4 22.0 21.6 21.3 21.0 20.7 20.5 20.3 20.2 20.1 61.3 80.9 62.0 41.4 49.7 47.4 42.6 52.5 55.6 39.7 28.8 25.9 24.7 24.1 23.5 23.0 22.5 22.1 21.6 21.3 21.0 20.8 20.6 20.3 20.2 20.1 89.1 133.2 102.0 75.4 94.5 87.9 76.9 88.9 84.6 52.5 35.1 29.0 25.5 24.5 23.7 23.1 22.6 22.2 21.7 21.3 21.0 20.8 20.5 20.3 20.1 20.1 137.6 193.7 141.7 113.8 144.6 141.0 127.8 105.2 81.1 55.5 37.6 29.9 26.0 24.9 24.0 23.3 22.7 22.2 21.7 21.3 21.0 20.7 20.5 20.3 20.1 20.1 162.9 207.3 138.0 93.7 116.1 116.1 110.5 80.7 60.3 48.7 33.1 27.6 25.8 24.8 24.0 23.3 22.7 22.2 21.7 21.3 21.0 20.7 20.5 20.3 20.1 20.1 116.8 156.0 116.4 61.6 55.6 52.0 54.3 48.8 42.9 36.9 28.4 26.2 25.3 24.4 23.7 23.1 22.5 22.1 21.7 21.3 21.0 20.8 20.5 20.3 20.2 20.1 50.1 77.8 77.9 49.9 38.2 36.1 37.3 36.0 31.8 28.5 26.4 25.4 24.7 24.0 23.5 22.9 22.4 22.0 21.6 21.3 21.0 20.8 20.5 20.3 20.2 20.1 25.8 33.2 36.4 33.3 31.3 30.9 30.2 29.8 28.5 26.6 25.7 24.9 24.3 23.8 23.2 22.8 22.3 21.9 21.5 21.2 21.0 20.7 20.5 20.3 20.2 20.1 20.0 20.0 20.0 20.1 20.0 20.0 20.0 20.0 20.1 20.1 20.1 20.0 20.0 20.0 20.0 20.0 20.0 20.0 20.0 20.0 20.0 20.1 20.1 20.1 20.1 20.1 20.1 20.1 20.1 20.1 20.1 20.1 20.1 20.1 20.1 20.1 20.1 20.1 20.1 20.1 20.1 20.1 20.1 20.1 20.1 20.1 20.1 20.1 20.1 20.2 20.2 20.1 20.2 20.2 20.2 20.2 20.2 20.2 20.2 20.2 20.2 20.2 20.2 20.2 20.2 20.2 20.2 20.2 20.2 20.2 20.2 20.2 20.3 20.3 20.3 20.3 20.2 20.1 20.3 20.3 20.3 20.3 20.3 20.3 20.3 20.3 20.4 20.4 20.3 20.3 20.3 20.3 20.3 20.4 20.4 20.4 20.4 20.4 20.4 20.5 20.4 20.3 20.1 20.1 20.3 20.4 20.4 20.4 20.4 20.4 20.4 20.5 20.5 20.5 20.5 20.5 20.5 20.5 20.6 20.6 20.6 20.6 20.6 20.6 20.6 20.6 20.5 20.3 20.1 20.1 20.4 20.5 20.5 20.6 20.6 20.6 20.6 20.6 20.7 20.7 20.7 20.7 20.7 20.8 20.8 20.8 20.8 20.8 20.8 20.7 20.7 20.6 20.4 20.3 20.1 20.0 20.6 20.6 20.6 20.7 20.7 20.7 20.8 20.8 20.9 21.0 21.0 21.0 21.0 21.0 21.0 21.0 21.0 20.9 20.9 20.8 20.8 20.6 20.4 20.3 20.1 20.1 20.7 20.8 20.8 20.9 20.9 20.9 21.0 21.1 21.2 21.3 21.3 21.3 21.3 21.2 21.2 21.2 21.1 21.1 21.0 20.9 20.8 20.6 20.4 20.2 20.1 20.1 20.9 21.0 21.0 21.1 21.2 21.3 21.4 21.5 21.6 21.6 21.5 21.5 21.5 21.4 21.4 21.3 21.2 21.2 21.1 21.0 20.8 20.7 20.4 20.3 20.1 20.1 21.1 21.2 21.3 21.4 21.5 21.7 21.8 21.8 21.9 21.9 21.8 21.7 21.7 21.6 21.5 21.4 21.4 21.3 21.2 21.0 20.9 20.7 20.5 20.3 20.1 20.1 21.3 21.5 21.6 21.7 21.8 22.0 22.2 22.2 22.2 22.2 22.1 22.0 21.9 21.8 21.7 21.6 21.5 21.4 21.3 21.1 20.9 20.7 20.5 20.3 20.1 20.1 21.6 21.7 21.9 22.0 22.1 22.3 22.5 22.6 22.6 22.5 22.3 22.2 22.1 22.0 21.9 21.7 21.6 21.5 21.3 21.2 20.9 20.7 20.5 20.3 20.1 20.1 21.8 22.0 22.2 22.3 22.5 22.7 22.9 23.0 23.0 22.8 22.7 22.5 22.4 22.2 22.1 21.9 21.8 21.6 21.4 21.2 21.0 20.7 20.4 20.2 20.1 20.1 22.1 22.3 22.5 22.7 22.9 23.2 23.4 23.5 23.4 23.2 23.0 22.8 22.6 22.5 22.3 22.1 21.9 21.7 21.5 21.2 21.0 20.7 20.4 20.3 20.1 20.1 22.4 22.8 23.0 23.1 23.3 23.