<?xml version="1.0"?>
<VTKFile type="RectilinearGrid" version="1.0" byte_order="LittleEndian" header_type="UInt64">
<RectilinearGrid WholeExtent="25 50 0 25 0 15">
<Piece Extent="25 50 0 25 0 15">
<Coordinates>
<DataArray type="Float64" Name="Array X-Axis" format="ascii" RangeMin="15.0" RangeMax="30.0">
15.0 15.6 16.2 16.8 17.4 18.0 18.6 19.2 19.8 20.4 21.0 21.6 22.2 22.8 23.4 24.0 24.6 25.2 25.8 26.4 27.0 27.6 28.2 28.8 29.4 30.0 
</DataArray>
<DataArray type="Float64" Name="Array Y-Axis" format="ascii" RangeMin="0.0" RangeMax="15.0">
0.0 0.6 1.2 1.8 2.4 3.0 3.6 4.2 4.8 5.4 6.0 6.6 7.2 7.8 8.4 9.0 9.6 10.2 10.8 11.4 12.0 12.6 13.2 13.8 14.4 15.0 
</DataArray>
<DataArray type="Float64" Name="Array Z-Axis" format="ascii" RangeMin="0.0" RangeMax="9.0">
0.0 0.6 1.2 1.8 2.4 3.0 3.6 4.2 4.8 5.4 6.0 6.6 7.2 7.8 8.4 9.0 
</DataArray>
</Coordinates>
<PointData>
<DataArray Name="TEMPERATURE" NumberOfComponents="1" type="Float64" format="ascii">
20.0 20.0 20.0 20.0 20.0 20.1 20.1 20.1 20.1 20.1 20.1 20.1 20.0 20.0 20.0 20.0 20.0 20.0 20.0 20.0 20.0 20.0 20.0 20.0 20.0 20.0 20.1 20.1 20.1 20.1 20.1 20.1 20.1 20.1 20.2 20.2 20.1 20.1 20.1 20.1 20.1 20.1 20.1 20.1 20.1 20.1 20.1 20.1 20.1 20.1 20.0 20.0 20.1 20.2 20.2 20.2 20.2 20.2 20.2 20.2 20.3 20.3 20.3 20.2 20.2 20.2 20.2 20.2 20.1 20.1 20.1 20.1 20.1 20.1 20.1 20.1 20.1 20.0 20.2 20.2 20.3 20.3 20.3 20.3 20.3 20.3 20.4 20.4 20.4 20.3 20.3 20.3 20.2 20.2 20.2 20.2 20.2 20.2 20.2 20.2 20.2 20.1 20.1 20.0 20.3 20.3 20.4 20.4 20.4 20.4 20.4 20.4 20.5 20.5 20.5 20.4 20.4 20.3 20.3 20.3 20.3 20.3 20.3 20.3 20.3 20.3 20.2 20.1 20.1 20.0 20.4 20.4 20.5 20.5 20.5 20.5 20.6 20.5 20.6 20.6 20.6 20.5 20.4 20.4 20.4 20.4 20.4 20.4 20.4 20.4 20.4 20.3 20.2 20.1 20.1 20.0 20.5 20.5 20.6 20.6 20.7 20.7 20.7 20.7 20.7 20.8 20.7 20.6 20.6 20.5 20.5 20.5 20.5 20.5 20.5 20.5 20.4 20.3 20.2 20.1 20.1 20.0 20.6 20.7 20.7 20.8 20.8 20.8 20.8 20.9 20.9 20.9 20.8 20.7 20.7 20.7 20.6 20.6 20.6 20.6 20.6 20.5 20.4 20.3 20.2 20.2 20.1 20.0 20.7 20.8 20.9 21.0 21.0 21.0 21.0 21.0 21.1 21.1 20.9 20.8 20.8 20.8 20.8 20.7 20.7 20.7 20.7 20.5 20.4 20.3 20.2 20.2 20.1 20.1 20.9 20.9 21.1 21.2 21.2 21.2 21.2 21.2 21.2 21.2 21.1 21.0 21.0 20.9 20.9 20.9 20.9 20.8 20.7 20.5 20.4 20.3 20.3 20.2 20.1 20.1 21.0 21.1 21.2 21.4 21.4 21.5 21.5 21.5 21.5 21.4 21.3 21.2 21.1 21.1 21.1 21.1 21.0 20.8 20.7 20.6 20.5 20.4 20.3 20.2 20.1 20.1 21.2 21.3 21.5 21.6 21.7 21.7 21.8 21.8 21.8 21.7 21.5 21.4 21.3 21.3 21.3 21.2 21.0 20.8 20.7 20.6 20.5 20.4 20.3 20.2 20.1 20.1 21.4 21.5 21.7 21.9 21.9 22.0 22.1 22.1 22.1 21.9 21.7 21.6 21.6 21.6 21.5 21.2 21.1 20.9 20.8 20.7 20.5 20.4 20.3 20.2 20.1 20.1 21.6 21.8 22.0 22.2 22.3 22.5 22.6 22.5 22.4 22.2 22.0 21.9 21.9 21.8 21.5 21.3 21.1 21.0 20.8 20.7 20.6 20.5 20.4 20.2 20.1 20.1 21.9 22.0 22.3 22.6 22.7 23.0 23.1 23.0 22.8 22.6 22.4 22.3 22.2 21.9 21.6 21.4 21.2 21.0 20.9 20.7 20.6 20.5 20.4 20.3 20.1 20.1 22.2 22.4 22.7 23.1 23.3 23.5 23.7 23.7 23.5 23.1 22.9 22.7 22.3 22.0 21.7 21.5 21.3 21.1 20.9 20.8 20.7 20.5 20.4 20.3 20.1 20.1 22.5 22.8 23.2 23.7 24.0 24.3 24.6 24.5 24.2 23.7 23.4 23.0 22.5 22.1 21.8 21.6 21.4 21.2 21.0 20.9 20.7 20.6 20.4 20.3 20.1 20.1 22.9 23.3 23.8 24.4 24.9 25.4 25.7 25.5 25.0 24.4 23.8 23.2 22.7 22.3 22.0 21.7 21.5 21.3 21.1 21.0 20.8 20.6 20.5 20.3 20.2 20.1 23.4 23.9 24.4 25.3 26.2 26.9 27.3 26.8 26.0 25.1 24.2 23.5 23.0 22.6 22.3 22.0 21.7 21.5 21.3 21.1 20.9 20.7 20.5 20.4 20.2 20.2 24.2 24.7 25.8 28.5 30.9 32.8 32.5 29.5 27.5 26.2 25.1 24.1 23.6 23.2 22.7 22.2 21.9 21.7 21.4 21.2 21.0 20.8 20.6 20.4 20.3 20.2 25.3 26.0 28.1 33.4 36.5 37.8 36.7 31.8 29.5 27.7 26.3 24.9 24.2 23.7 23.0 22.4 22.0 21.7 21.4 21.1 20.9 20.7 20.5 20.4 20.3 20.2 26.2 27.3 30.1 37.4 42.4 20.0 20.0 34.3 32.0 28.7 26.9 25.6 24.6 23.9 23.2 22.6 22.1 21.7 21.4 21.0 20.8 20.7 20.5 20.4 20.2 20.2 26.4 27.9 31.1 39.1 44.4 20.0 20.0 35.6 32.6 28.4 26.7 25.7 24.6 23.7 23.2 22.7 22.1 21.7 21.3 21.0 20.8 20.7 20.5 20.4 20.2 20.1 25.8 27.3 32.2 38.3 38.4 34.1 33.4 32.9 30.5 27.1 25.7 25.0 24.1 23.4 22.9 22.5 22.1 21.7 21.3 21.1 20.9 20.7 20.6 20.4 20.2 20.1 24.9 25.8 29.3 32.4 32.2 31.9 31.3 29.7 27.7 25.8 24.6 24.0 23.5 23.0 22.7 22.3 21.9 21.6 21.3 21.0 20.9 20.7 20.5 20.3 20.2 20.1 23.2 24.6 25.3 26.3 27.7 28.9 28.6 27.0 25.6 24.7 23.9 23.4 22.9 22.6 22.3 22.0 21.7 21.4 21.2 21.0 20.8 20.6 20.4 20.3 20.1 20.1 20.0 20.0 20.0 20.0 20.0 20.1 20.1 20.1 20.1 20.1 20.1 20.1 20.0 20.0 20.0 20.0 20.0 20.0 20.0 20.0 20.0 20.0 20.0 20.0 20.0 20.0 20.1 20.1 20.1 20.1 20.1 20.1 20.1 20.1 20.1 20.1 20.1 20.1 20.1 20.1 20.1 20.1 20.1 20.1 20.1 20.1 20.1 20.1 20.0 20.1 20.0 20.0 20.1 20.1 20.2 20.2 20.2 20.2 20.2 20.2 20.2 20.3 20.3 20.2 20.2 20.2 20.1 20.1 20.1 20.1 20.1 20.1 20.1 20.1 20.1 20.1 20.1 20.0 20.2 20.2 20.2 20.3 20.3 20.3 20.3 20.3 20.3 20.4 20.4 20.3 20.2 20.2 20.2 20.2 20.2 20.2 20.2 20.2 20.2 20.2 20.2 20.1 20.1 20.0 20.3 20.3 20.3 20.4 20.4 20.4 20.4 20.4 20.5 20.5 20.5 20.4 20.3 20.3 20.3 20.3 20.3 20.3 20.3 20.3 20.3 20.3 20.2 20.1 20.1 20.0 20.4 20.4 20.4 20.5 20.5 20.5 20.5 20.5 20.6 20.6 20.6 20.5 20.4 20.4 20.4 20.4 20.4 20.3 20.3 20.4 20.4 20.3 20.2 20.1 20.1 20.0 20.5 20.5 20.6 20.6 20.6 20.7 20.7 20.7 20.7 20.7 20.7 20.6 20.5 20.5 20.5 20.5 20.4 20.4 20.5 20.5 20.4 20.3 20.2 20.1 20.1 20.0 20.6 20.6 20.7 20.8 20.8 20.8 20.8 20.9 20.9 20.9 20.8 20.7 20.6 20.6 20.6 20.6 20.6 20.6 20.6 20.5 20.4 20.3 20.2 20.1 20.1 20.0 20.7 20.8 20.8 20.9 21.0 21.0 21.0 21.0 21.1 21.0 20.9 20.8 20.8 20.7 20.7 20.7 20.7 20.7 20.6 20.5 20.4 20.3 20.2 20.2 20.1 20.0 20.8 20.9 21.0 21.1 21.2 21.2 21.2 21.2 21.2 21.2 21.0 21.0 20.9 20.9 20.9 20.9 20.9 20.8 20.6 20.5 20.4 20.3 20.2 20.2 20.1 20.0 21.0 21.1 21.2 21.4 21.4 21.4 21.5 21.5 21.5 21.4 21.2 21.1 21.1 21.1 21.1 21.1 21.0 20.8 20.6 20.5 20.4 20.3 20.3 20.2 20.1 20.1 21.2 21.3 21.4 21.6 21.7 21.7 21.8 21.8 21.8 21.6 21.5 21.3 21.3 21.3 21.3 21.2 21.0 20.8 20.7 20.6 20.5 20.4 20.3 20.2 20.1 20.1 21.4 21.5 21.7 21.9 22.0 22.1 22.2 22.2 22.1 21.9 21.7 21.6 21.6 21.6 21.5 21.2 21.0 20.9 20.7 20.6 20.5 20.4 20.3 20.2 20.1 20.1 21.6 21.8 22.0 22.2 22.4 22.6 22.7 22.6 22.4 22.2 22.0 22.0 21.9 21.8 21.6 21.3 21.1 20.9 20.8 20.7 20.6 20.4 20.3 20.2 20.1 20.1 21.9 22.1 22.3 22.6 22.9 23.1 23.2 23.1 22.9 22.6 22.5 22.4 22.2 21.9 21.6 21.4 21.2 21.0 20.8 20.7 20.6 20.5 20.4 20.2 20.1 20.1 22.2 22.4 22.8 23.2 23.5 23.8 24.0 23.9 23.5 23.2 23.0 22.7 22.4 22.0 21.7 21.5 21.3 21.1 20.9 20.8 20.6 20.5 20.4 20.3 20.1 20.1 22.6 22.9 23.3 23.8 24.3 24.8 25.0 24.7 24.3 23.9 23.5 23.0 22.6 22.2 21.9 21.6 21.4 21.1 21.0 20.8 20.7 20.5 20.4 20.3 20.1 20.1 23.1 23.4 24.0 24.9 25.7 26.2 26.4 25.8 25.2 24.6 23.9 23.3 22.8 22.4 22.0 21.7 21.5 21.3 21.1 21.0 20.8 20.6 20.5 20.3 20.2 20.1 23.6 24.1 24.8 26.9 28.2 28.5 29.0 27.8 26.2 25.3 24.4 23.6 23.1 22.7 22.3 22.0 21.7 21.5 21.3 21.1 20.9 20.7 20.5 20.3 20.2 20.1 24.4 25.4 28.5 38.8 41.9 38.6 37.9 32.5 28.2 26.4 25.2 24.2 23.6 23.2 22.7 22.3 22.0 21.7 21.4 21.2 21.0 20.7 20.5 20.4 20.2 20.1 25.4 26.7 31.3 46.2 81.4 130.9 115.7 56.0 32.2 28.0 26.5 25.1 24.3 23.8 23.1 22.5 22.1 21.7 21.4 21.2 20.9 20.7 20.5 20.4 20.2 20.1 26.8 27.7 31.4 43.8 108.0 315.2 365.6 137.3 38.9 29.7 27.4 25.8 24.8 24.1 23.3 22.7 22.1 21.8 21.4 21.1 20.9 20.7 20.5 20.3 20.2 20.1 27.5 29.1 35.8 47.4 88.4 257.1 359.8 155.1 41.1 29.7 27.1 25.9 24.7 23.9 23.2 22.7 22.2 21.8 21.4 21.1 20.8 20.7 20.5 20.4 20.2 20.1 26.5 28.2 37.8 46.6 57.0 88.5 113.7 75.6 35.3 27.8 26.0 25.1 24.2 23.5 23.0 22.5 22.1 21.7 21.4 21.1 20.9 20.7 20.5 20.3 20.2 20.1 25.0 26.0 31.2 35.9 35.9 36.9 39.5 36.2 29.2 26.0 24.8 24.1 23.5 23.0 22.6 22.3 21.9 21.6 21.3 21.0 20.9 20.7 20.5 20.3 20.1 20.1 23.3 25.0 25.9 27.5 29.4 30.4 29.7 27.9 26.2 25.0 24.2 23.5 23.0 22.6 22.3 22.0 21.7 21.4 21.1 20.9 20.8 20.6 20.4 20.3 20.1 20.1 20.0 20.0 20.0 20.0 20.0 20.1 20.1 20.1 20.1 20.0 20.1 20.0 20.0 20.0 20.0 20.0 20.0 20.0 20.0 20.0 20.0 20.0 20.0 20.0 20.0 20.0 20.1 20.1 20.1 20.1 20.1 20.1 20.1 20.1 20.1 20.1 20.1 20.1 20.1 20.1 20.1 20.1 20.1 20.1 20.1 20.0 20.0 20.0 20.0 20.0 20.0 20.0 20.1 20.1 20.1 20.2 20.2 20.2 20.2 20.2 20.2 20.2 20.2 20.2 20.1 20.1 20.1 20.1 20.1 20.1 20.1 20.1 20.1 20.1 20.1 20.1 20.0 20.0 20.2 20.2 20.2 20.2 20.3 20.3 20.3 20.3 20.3 20.3 20.3 20.2 20.2 20.2 20.2 20.2 20.2 20.2 20.1 20.1 20.1 20.2 20.1 20.1 20.0 20.0 20.3 20.3 20.3 20.3 20.4 20.4 20.4 20.4 20.4 20.4 20.4 20.3 20.3 20.3 20.3 20.3 20.2 20.2 20.2 20.2 20.2 20.2 20.2 20.1 20.0 20.0 20.4 20.4 20.4 20.5 20.5 20.5 20.5 20.5 20.6 20.5 20.5 20.4 20.4 20.4 20.3 20.3 20.3 20.3 20.3 20.3 20.3 20.3 20.2 20.1 20.0 20.0 20.4 20.5 20.5 20.6 20.6 20.6 20.6 20.7 20.7 20.7 20.6 20.5 20.5 20.5 20.4 20.4 20.4 20.4 20.5 20.5 20.4 20.3 20.2 20.1 20.1 20.0 20.5 20.6 20.7 20.7 20.8 20.8 20.8 20.8 20.9 20.8 20.7 20.6 20.6 20.6 20.5 20.5 20.5 20.6 20.6 20.5 20.3 20.2 20.2 20.1 20.1 20.0 20.7 20.7 20.8 20.9 21.0 21.0 21.0 21.0 21.0 20.9 20.8 20.7 20.7 20.7 20.6 20.7 20.7 20.7 20.6 20.4 20.3 20.2 20.2 20.1 20.1 20.0 20.8 20.9 21.0 21.1 21.2 21.2 21.2 21.3 21.2 21.1 21.0 20.9 20.9 20.8 20.8 20.9 20.9 20.7 20.6 20.4 20.3 20.3 20.2 20.1 20.1 20.0 21.0 21.1 21.2 21.3 21.4 21.5 21.5 21.5 21.5 21.3 21.2 21.1 21.0 21.0 21.1 21.1 20.9 20.7 20.5 20.4 20.4 20.3 20.2 20.1 20.1 20.0 21.1 21.3 21.4 21.6 21.7 21.8 21.9 21.9 21.8 21.6 21.4 21.3 21.3 21.3 21.3 21.1 20.9 20.7 20.6 20.5 20.4 20.3 20.2 20.2 20.1 20.0 21.4 21.5 21.7 21.9 22.1 22.2 22.3 22.3 22.1 21.8 21.7 21.6 21.6 21.6 21.4 21.2 20.9 20.8 20.7 20.5 20.4 20.3 20.3 20.2 20.1 20.0 21.6 21.8 22.0 22.3 22.6 22.7 22.9 22.8 22.5 22.2 22.1 22.0 22.0 21.8 21.5 21.2 21.0 20.9 20.7 20.6 20.5 20.4 20.3 20.2 20.1 20.1 21.9 22.2 22.4 22.7 23.1 23.4 23.6 23.4 23.0 22.8 22.6 22.5 22.2 21.9 21.6 21.3 21.1 20.9 20.8 20.7 20.5 20.4 20.3 20.2 20.1 20.1 22.3 22.6 22.9 23.4 23.9 24.3 24.6 24.3 23.7 23.4 23.2 22.9 22.5 22.0 21.7 21.4 21.2 21.0 20.8 20.7 20.6 20.4 20.3 20.2 20.1 20.1 22.8 23.1 23.5 24.1 24.9 25.9 26.3 25.5 24.6 24.1 23.7 23.2 22.7 22.2 21.9 21.6 21.3 21.1 20.9 20.8 20.6 20.5 20.4 20.2 20.1 20.1 23.3 23.7 24.4 26.1 27.4 28.5 28.8 27.0 25.6 24.9 24.2 23.5 23.0 22.5 22.1 21.7 21.5 21.2 21.1 20.9 20.7 20.6 20.4 20.3 20.1 20.1 23.9 24.6 25.9 31.0 34.4 34.3 36.1 32.5 27.1 25.8 24.8 23.9 23.3 22.8 22.3 22.0 21.7 21.5 21.3 21.1 20.9 20.7 20.5 20.3 20.1 20.1 24.7 26.5 32.9 59.2 74.1 66.1 59.0 43.2 30.4 27.0 25.6 24.5 23.8 23.2 22.7 22.3 21.9 21.6 21.4 21.1 20.9 20.7 20.5 20.3 20.2 20.1 25.7 27.9 37.5 84.9 163.0 220.0 196.8 108.9 46.5 29.0 27.0 25.5 24.6 23.8 23.2 22.6 22.1 21.7 21.4 21.2 20.9 20.7 20.5 20.3 20.1 20.1 27.3 29.9 39.1 83.1 206.8 363.1 393.5 241.1 81.4 32.0 28.3 26.5 25.3 24.3 23.5 22.8 22.2 21.8 21.5 21.1 20.9 20.7 20.5 20.3 20.1 20.1 28.5 35.3 54.9 91.6 168.9 284.9 353.7 244.9 82.6 32.7 28.3 26.7 25.2 24.2 23.5 22.8 22.3 21.9 21.5 21.1 20.9 20.6 20.5 20.3 20.2 20.1 27.4 34.7 55.6 82.2 103.4 125.6 160.1 126.9 52.1 29.7 27.0 25.8 24.6 23.7 23.1 22.6 22.2 21.8 21.4 21.1 20.9 20.7 20.5 20.3 20.2 20.1 25.5 28.4 36.4 49.6 54.1 51.1 59.8 55.3 34.8 27.0 25.6 24.6 23.9 23.2 22.7 22.3 21.9 21.6 21.3 21.1 20.8 20.6 20.5 20.3 20.1 20.1 23.6 25.7 27.9 34.8 39.2 36.7 34.0 30.5 27.3 25.7 24.7 23.9 23.3 22.7 22.3 22.0 21.7 21.4 21.1 20.9 20.7 20.6 20.4 20.3 20.1 20.1 20.0 20.0 20.0 20.0 20.0 20.0 20.0 20.1 20.1 20.0 20.0 20.0 20.0 20.0 20.0 20.0 20.0 20.0 20.0 20.0 20.0 20.0 20.0 20.0 20.0 20.0 20.1 20.1 20.1 20.1 20.1 20.1 20.1 20.1 20.1 20.1 20.1 20.1 20.1 20.1 20.1 20.1 20.1 20.0 20.0 20.0 20.0 20.0 20.0 20.0 20.0 20.0 20.1 20.1 20.1 20.2 20.2 20.2 20.2 20.2 20.2 20.2 20.2 20.2 20.1 20.1 20.1 20.1 20.1 20.1 20.1 20.1 20.1 20.1 20.1 20.1 20.0 20.0 20.2 20.2 20.2 20.3 20.3 20.3 20.3 20.3 20.3 20.3 20.3 20.2 20.2 20.2 20.2 20.2 20.2 20.2 20.1 20.1 20.1 20.1 20.1 20.1 20.0 20.0 20.3 20.3 20.3 20.4 20.4 20.4 20.4 20.4 20.4 20.4 20.4 20.3 20.3 20.3 20.3 20.2 20.2 20.2 20.2 20.2 20.2 20.2 20.2 20.1 20.0 20.0 20.4 20.4 20.4 20.5 20.5 20.5 20.5 20.5 20.5 20.5 20.5 20.4 20.4 20.4 20.4 20.3 20.3 20.3 20.3 20.3 20.3 20.3 20.2 20.1 20.0 20.0 20.5 20.5 20.6 20.6 20.7 20.7 20.6 20.7 20.7 20.6 20.6 20.5 20.5 20.5 20.4 20.4 20.4 20.4 20.4 20.4 20.4 20.2 20.2 20.1 20.0 20.0 20.6 20.6 20.7 20.8 20.8 20.8 20.8 20.8 20.8 20.8 20.7 20.6 20.6 20.6 20.6 20.5 20.5 20.6 20.6 20.5 20.3 20.2 20.2 20.1 20.1 20.0 20.7 20.8 20.9 21.0 21.0 21.0 21.0 21.1 21.0 20.9 20.8 20.8 20.7 20.7 20.7 20.7 20.7 20.7 20.6 20.4 20.3 20.2 20.2 20.1 20.1 20.0 20.8 20.9 21.0 21.2 21.2 21.2 21.3 21.3 21.2 21.1 21.0 20.9 20.9 20.9 20.9 20.9 20.9 20.7 20.6 20.4 20.3 20.3 20.2 20.1 20.1 20.0 21.0 21.1 21.2 21.4 21.5 21.5 21.6 21.6 21.5 21.3 21.2 21.1 21.1 21.0 21.1 21.1 20.9 20.7 20.6 20.5 20.4 20.3 20.2 20.1 20.1 20.0 21.2 21.3 21.5 21.7 21.8 21.9 21.9 21.9 21.8 21.6 21.4 21.4 21.3 21.3 21.3 21.1 20.9 20.7 20.6 20.5 20.4 20.3 20.2 20.1 20.1 20.0 21.4 21.6 21.7 22.0 22.2 22.3 22.4 22.4 22.1 21.9 21.7 21.7 21.7 21.6 21.4 21.2 20.9 20.8 20.7 20.5 20.4 20.3 20.2 20.2 20.1 20.0 21.7 21.9 22.1 22.3 22.6 22.8 23.0 22.9 22.6 22.3 22.2 22.1 22.0 21.8 21.5 21.2 21.0 20.9 20.7 20.6 20.5 20.4 20.3 20.2 20.1 20.0 22.0 22.2 22.5 22.8 23.2 23.5 23.8 23.6 23.2 22.9 22.7 22.6 22.3 21.9 21.6 21.3 21.1 21.0 20.8 20.7 20.5 20.4 20.3 20.2 20.1 20.1 22.4 22.7 23.1 23.6 24.0 24.5 24.8 24.6 23.9 23.6 23.3 23.0 22.5 22.1 21.7 21.5 21.3 21.1 20.9 20.7 20.6 20.4 20.3 20.2 20.1 20.1 22.9 23.3 24.6 25.2 25.6 27.2 27.4 26.0 24.9 24.4 23.9 23.4 22.8 22.3 22.0 21.7 21.4 21.1 20.9 20.8 20.6 20.5 20.3 20.2 20.1 20.1 23.5 24.2 28.0 29.8 28.9 30.8 31.2 28.4 26.2 25.4 24.6 23.8 23.1 22.6 22.2 21.8 21.5 21.2 21.0 20.9 20.7 20.5 20.4 20.3 20.1 20.1 24.6 27.1 33.8 38.5 38.0 39.1 41.4 36.7 29.2 26.7 25.4 24.3 23.5 22.9 22.4 22.0 21.7 21.4 21.2 21.0 20.8 20.6 20.5 20.3 20.1 20.1 25.7 30.4 47.5 77.1 92.8 86.9 77.2 62.9 41.9 29.0 26.3 25.0 24.0 23.3 22.8 22.3 21.9 21.6 21.3 21.1 20.9 20.7 20.5 20.3 20.1 20.1 26.9 33.9 68.3 150.7 227.5 253.7 238.9 171.7 79.3 32.2 27.6 26.0 24.9 24.0 23.3 22.7 22.2 21.8 21.5 21.2 20.9 20.7 20.5 20.3 20.1 20.1 29.3 40.2 83.5 185.0 311.2 397.0 408.8 301.7 125.4 35.8 29.5 27.2 25.7 24.6 23.7 22.9 22.3 21.9 21.5 21.2 20.9 20.7 20.5 20.3 20.1 20.1 30.6 47.2 100.0 183.8 258.9 312.8 342.7 270.4 118.4 37.9 30.2 27.6 25.9 24.7 23.7 22.9 22.4 21.9 21.5 21.2 20.9 20.7 20.5 20.3 20.1 20.1 28.5 42.2 90.9 150.3 160.1 152.9 174.1 145.1 69.4 33.7 28.5 26.7 25.3 24.1 23.3 22.7 22.3 21.8 21.5 21.2 20.9 20.7 20.5 20.3 20.1 20.1 25.9 30.5 53.7 88.3 91.4 74.8 77.1 65.5 38.4 28.3 26.4 25.3 24.3 23.4 22.8 22.4 22.0 21.6 21.3 21.1 20.9 20.7 20.5 20.3 20.1 20.1 23.8 26.3 32.6 52.9 58.7 44.9 39.5 34.6 28.8 26.5 25.3 24.4 23.6 22.9 22.4 22.1 21.7 21.4 21.2 21.0 20.8 20.6 20.4 20.3 20.1 20.1 20.0 20.0 20.0 20.0 20.0 20.0 20.0 20.1 20.1 20.1 20.1 20.0 20.0 20.0 20.0 20.0 20.0 20.0 20.0 20.0 20.0 20.0 20.0 20.0 20.0 20.0 20.1 20.1 20.1 20.1 20.1 20.1 20.1 20.1 20.1 20.1 20.1 20.1 20.1 20.1 20.1 20.1 20.1 20.1 20.1 20.1 20.0 20.0 20.0 20.0 20.0 20.0 20.1 20.2 20.2 20.2 20.2 20.2 20.2 20.2 20.2 20.2 20.2 20.2 20.2 20.1 20.1 20.1 20.1 20.1 20.1 20.1 20.1 20.1 20.1 20.1 20.0 20.0 20.2 20.2 20.3 20.3 20.3 20.3 20.3 20.3 20.3 20.3 20.3 20.3 20.2 20.2 20.2 20.2 20.2 20.2 20.2 20.2 20.2 20.2 20.1 20.1 20.0 20.0 20.3 20.3 20.4 20.4 20.4 20.4 20.4 20.4 20.5 20.4 20.4 20.4 20.3 20.3 20.3 20.3 20.3 20.3 20.3 20.3 20.3 20.2 20.2 20.1 20.0 20.0 20.4 20.4 20.5 20.5 20.5 20.5 20.5 20.6 20.6 20.6 20.5 20.5 20.4 20.4 20.4 20.4 20.4 20.4 20.4 20.4 20.3 20.3 20.2 20.1 20.0 20.0 20.5 20.6 20.6 20.7 20.7 20.7 20.7 20.7 20.7 20.7 20.6 20.6 20.5 20.5 20.5 20.5 20.5 20.5 20.5 20.4 20.4 20.3 20.2 20.1 20.1 20.0 20.6 20.7 20.8 20.9 20.9 20.9 20.9 20.9 20.9 20.8 20.8 20.7 20.7 20.7 20.6 20.6 20.6 20.6 20.6 20.5 20.4 20.3 20.2 20.1 20.1 20.0 20.8 20.9 20.9 21.0 21.1 21.0 21.1 21.1 21.1 21.0 20.9 20.8 20.8 20.8 20.8 20.8 20.7 20.7 20.6 20.5 20.4 20.3 20.2 20.1 20.1 20.0 20.9 21.0 21.1 21.2 21.3 21.3 21.3 21.4 21.3 21.2 21.1 21.0 21.0 21.0 21.0 20.9 20.9 20.8 20.6 20.5 20.4 20.3 20.2 20.1 20.1 20.0 21.1 21.2 21.3 21.5 21.5 21.6 21.6 21.6 21.6 21.4 21.3 21.2 21.2 21.2 21.1 21.1 21.0 20.8 20.6 20.5 20.4 20.3 20.2 20.2 20.1 20.0 21.3 21.4 21.6 21.7 21.8 21.9 22.0 22.0 21.9 21.7 21.6 21.5 21.4 21.4 21.3 21.2 21.0 20.8 20.7 20.6 20.5 20.4 20.3 20.2 20.1 20.0 21.5 21.7 21.8 22.0 22.2 22.3 22.5 22.5 22.2 22.0 21.9 21.8 21.7 21.7 21.5 21.2 21.0 20.9 20.8 20.6 20.5 20.4 20.3 20.2 20.1 20.0 21.8 21.9 22.1 22.4 22.6 22.8 23.0 23.0 22.7 22.4 22.3 22.2 22.0 21.8 21.6 21.3 21.1 21.0 20.9 20.7 20.6 20.4 20.3 20.2 20.1 20.1 22.1 22.4 22.6 22.8 23.2 23.4 23.7 23.6 23.3 23.0 22.8 22.6 22.3 22.0 21.7 21.5 21.3 21.1 20.9 20.8 20.6 20.5 20.3 20.2 20.1 20.1 22.6 23.4 23.9 23.8 23.9 24.3 24.7 24.6 24.0 23.7 23.4 23.0 22.6 22.2 21.9 21.6 21.4 21.2 21.0 20.8 20.7 20.5 20.4 20.2 20.1 20.1 23.3 25.0 26.7 26.4 26.3 27.6 27.6 26.2 25.1 24.5 24.0 23.4 22.9 22.5 22.1 21.8 21.5 21.3 21.1 20.9 20.7 20.5 20.4 20.2 20.1 20.1 24.0 27.3 32.5 32.0 28.1 29.9 31.7 29.1 26.7 25.7 24.8 24.0 23.3 22.7 22.3 22.0 21.6 21.4 21.1 20.9 20.7 20.6 20.4 20.3 20.1 20.1 27.0 35.3 44.2 42.2 33.0 34.8 40.7 37.4 31.0 27.1 25.6 24.5 23.7 23.0 22.5 22.1 21.8 21.5 21.2 21.0 20.8 20.6 20.5 20.3 20.2 20.1 31.3 46.8 71.1 86.5 72.2 64.8 73.4 72.5 52.5 30.3 26.5 25.2 24.3 23.5 22.9 22.4 22.0 21.7 21.4 21.1 20.9 20.7 20.5 20.3 20.2 20.1 32.7 60.7 132.8 209.6 186.4 176.1 217.0 185.7 99.3 36.8 28.0 26.1 25.1 24.1 23.4 22.8 22.3 21.9 21.6 21.3 21.0 20.7 20.5 20.3 20.2 20.1 33.3 72.5 174.9 285.8 262.2 274.5 354.3 279.7 129.0 43.7 31.5 27.5 25.9 24.7 23.9 23.1 22.5 22.0 21.6 21.3 21.0 20.8 20.5 20.3 20.2 20.1 33.6 76.0 174.9 263.7 223.4 219.7 285.4 235.7 122.9 48.1 32.9 28.2 26.3 24.9 23.9 23.1 22.5 22.0 21.6 21.3 21.0 20.8 20.5 20.3 20.2 20.1 30.1 61.7 144.6 211.5 173.3 138.1 149.2 126.4 79.2 40.3 29.7 27.1 25.7 24.5 23.5 22.9 22.4 21.9 21.6 21.3 21.0 20.7 20.5 20.3 20.2 20.1 26.5 38.0 79.6 131.0 128.0 93.1 76.0 56.2 36.7 29.2 26.8 25.6 24.6 23.7 23.0 22.5 22.2 21.8 21.5 21.2 21.0 20.7 20.5 20.3 20.2 20.1 24.0 27.5 36.8 67.0 72.3 48.5 41.8 36.3 29.3 26.8 25.5 24.6 23.8 23.2 22.7 22.3 21.9 21.6 21.3 21.1 20.9 20.7 20.5 20.3 20.1 20.1 20.0 20.0 20.1 20.1 20.1 20.1 20.1 20.1 20.1 20.1 20.1 20.1 20.0 20.0 20.0 20.0 20.0 20.0 20.0 20.0 20.0 20.0 20.0 20.0 20.0 20.0 20.1 20.1 20.1 20.1 20.1 20.1 20.1 20.1 20.1 20.1 20.1 20.1 20.1 20.1 20.1 20.1 20.1 20.1 20.1 20.1 20.1 20.1 20.1 20.1 20.0 20.0 20.2 20.2 20.2 20.2 20.2 20.2 20.2 20.2 20.2 20.2 20.2 20.2 20.2 20.2 20.2 20.2 20.2 20.1 20.1 20.1 20.1 20.1 20.1 20.1 20.1 20.0 20.3 20.3 20.3 20.3 20.3 20.3 20.3 20.4 20.4 20.4 20.3 20.3 20.3 20.3 20.3 20.3 20.2 20.2 20.2 20.2 20.2 20.2 20.2 20.1 20.1 20.0 20.4 20.4 20.4 20.4 20.4 20.4 20.5 20.5 20.5 20.5 20.5 20.4 20.4 20.4 20.4 20.3 20.3 20.3 20.3 20.3 20.3 20.3 20.2 20.1 20.1 20.0 20.5 20.5 20.5 20.6 20.6 20.6 20.6 20.6 20.6 20.6 20.6 20.5 20.5 20.5 20.5 20.5 20.4 20.4 20.4 20.4 20.4 20.3 20.2 20.1 20.1 20.0 20.6 20.6 20.7 20.7 20.7 20.7 20.7 20.8 20.8 20.8 20.7 20.6 20.6 20.6 20.6 20.6 20.6 20.5 20.5 20.5 20.4 20.3 20.2 20.1 20.1 20.0 20.7 20.8 20.8 20.9 20.9 20.9 20.9 21.0 21.0 20.9 20.8 20.8 20.7 20.7 20.7 20.7 20.7 20.7 20.6 20.5 20.4 20.3 20.2 20.1 20.1 20.0 20.8 20.9 21.0 21.1 21.1 21.1 21.1 21.2 21.2 21.1 21.0 20.9 20.9 20.9 20.9 20.9 20.8 20.7 20.7 20.6 20.5 20.3 20.2 20.2 20.1 20.0 21.0 21.1 21.2 21.3 21.3 21.3 21.4 21.4 21.4 21.3 21.2 21.2 21.1 21.1 21.1 21.0 20.9 20.8 20.7 20.6 20.5 20.4 20.3 20.2 20.1 20.0 21.2 21.3 21.4 21.5 21.6 21.6 21.7 21.7 21.7 21.5 21.5 21.4 21.3 21.3 21.2 21.1 21.0 20.9 20.8 20.6 20.5 20.4 20.3 20.2 20.1 20.0 21.4 21.5 21.6 21.8 21.8 21.9 22.0 22.1 22.0 21.8 21.7 21.6 21.6 21.5 21.4 21.2 21.1 20.9 20.8 20.7 20.6 20.4 20.3 20.2 20.1 20.1 21.6 21.7 21.9 22.1 22.2 22.3 22.4 22.5 22.3 22.2 22.0 21.9 21.8 21.7 21.5 21.3 21.2 21.1 20.9 20.8 20.6 20.5 20.3 20.2 20.1 20.1 21.9 22.0 22.2 22.4 22.6 22.7 22.9 23.0 22.8 22.6 22.4 22.2 22.1 21.9 21.7 21.5 21.3 21.2 21.0 20.8 20.6 20.5 20.4 20.2 20.1 20.1 22.2 22.5 22.7 22.8 23.1 23.3 23.6 23.6 23.4 23.1 22.9 22.7 22.4 22.1 21.9 21.6 21.4 21.2 21.1 20.9 20.7 20.5 20.4 20.2 20.1 20.1 22.8 23.8 24.2 23.8 23.9 24.1 24.4 24.5 24.1 23.7 23.4 23.0 22.7 22.4 22.1 21.8 21.6 21.3 21.1 20.9 20.7 20.5 20.4 20.3 20.1 20.1 23.7 26.2 27.4 26.6 26.3 26.7 26.9 26.2 25.3 24.6 24.0 23.5 23.0 22.6 22.3 22.0 21.7 21.4 21.2 21.0 20.8 20.6 20.4 20.3 20.1 20.1 26.8 31.7 33.5 29.8 26.8 28.7 30.3 28.6 26.8 25.7 24.8 24.1 23.5 22.9 22.5 22.1 21.8 21.5 21.3 21.0 20.8 20.6 20.4 20.3 20.1 20.1 38.7 50.8 49.6 36.8 28.1 32.7 37.7 35.5 30.4 26.9 25.6 24.6 23.9 23.2 22.7 22.3 22.0 21.7 21.4 21.1 20.9 20.7 20.5 20.3 20.2 20.1 56.4 80.4 89.2 71.2 45.8 49.2 59.8 60.8 47.4 29.5 26.4 25.2 24.4 23.7 23.1 22.6 22.2 21.9 21.5 21.3 21.0 20.8 20.5 20.3 20.2 20.1 62.5 119.2 188.8 174.2 107.1 129.1 165.7 140.8 84.5 38.0 28.4 26.1 25.1 24.2 23.5 22.9 22.4 22.0 21.6 21.3 21.0 20.8 20.5 20.3 20.2 20.1 59.4 142.5 255.1 240.1 159.6 217.4 280.5 215.5 114.8 54.6 34.7 27.9 25.9 24.7 23.8 23.1 22.6 22.1 21.7 21.3 21.0 20.8 20.5 20.3 20.2 20.1 56.6 138.9 241.6 219.0 143.5 183.9 229.0 195.6 124.6 60.9 36.4 28.5 26.3 25.0 24.0 23.2 22.6 22.1 21.7 21.3 21.0 20.7 20.5 20.3 20.2 20.1 42.7 99.7 182.9 196.5 149.2 128.2 118.8 111.4 86.8 44.8 30.7 27.1 25.7 24.7 23.7 23.0 22.5 22.0 21.6 21.3 21.0 20.8 20.5 20.3 20.2 20.1 28.9 47.2 88.5 140.2 139.1 92.8 65.6 50.2 38.2 30.0 27.0 25.6 24.7 24.0 23.3 22.7 22.3 21.9 21.6 21.2 21.0 20.8 20.6 20.4 20.2 20.1 24.8 28.5 36.7 67.2 71.9 45.9 39.2 34.3 28.7 26.9 25.7 24.7 24.0 23.4 22.9 22.4 22.1 21.7 21.4 21.1 20.9 20.7 20.5 20.3 20.2 20.1 20.0 20.1 20.1 20.0 20.1 20.1 20.1 20.1 20.1 20.1 20.1 20.1 20.0 20.0 20.0 20.0 20.0 20.0 20.0 20.0 20.0 20.0 20.0 20.0 20.0 20.0 20.1 20.1 20.1 20.1 20.1 20.1 20.1 20.1 20.1 20.1 20.1 20.1 20.1 20.1 20.1 20.1 20.1 20.1 20.1 20.1 20.1 20.1 20.1 20.1 20.0 20.0 20.2 20.2 20.2 20.2 20.2 20.2 20.2 20.3 20.3 20.3 20.2 20.2 20.2 20.2 20.2 20.2 20.2 20.2 20.2 20.2 20.2 20.2 20.2 20.1 20.1 20.0 20.3 20.3 20.3 20.3 20.3 20.3 20.3 20.4 20.4 20.4 20.4 20.3 20.3 20.3 20.3 20.3 20.3 20.3 20.3 20.3 20.3 20.3 20.2 20.2 20.1 20.0 20.4 20.4 20.4 20.5 20.4 20.4 20.5 20.5 20.5 20.5 20.5 20.5 20.4 20.4 20.4 20.4 20.4 20.4 20.4 20.4 20.4 20.3 20.2 20.2 20.1 20.0 20.5 20.5 20.6 20.6 20.6 20.6 20.6 20.7 20.7 20.7 20.6 20.6 20.5 20.5 20.5 20.5 20.5 20.5 20.5 20.5 20.4 20.4 20.3 20.2 20.1 20.0 20.6 20.6 20.7 20.7 20.7 20.7 20.7 20.8 20.8 20.8 20.8 20.7 20.7 20.7 20.7 20.7 20.6 20.6 20.6 20.6 20.5 20.4 20.3 20.2 20.1 20.0 20.7 20.8 20.9 20.9 20.9 20.9 20.9 21.0 21.0 21.0 20.9 20.9 20.8 20.8 20.8 20.8 20.8 20.7 20.7 20.6 20.5 20.4 20.3 20.2 20.1 20.0 20.9 20.9 21.0 21.1 21.1 21.1 21.1 21.2 21.2 21.2 21.1 21.1 21.0 21.0 21.0 20.9 20.9 20.8 20.7 20.6 20.5 20.4 20.3 20.2 20.1 20.0 21.0 21.1 21.2 21.3 21.3 21.3 21.4 21.5 21.5 21.4 21.3 21.3 21.2 21.2 21.1 21.1 21.0 20.9 20.8 20.7 20.5 20.4 20.3 20.2 20.1 20.0 21.2 21.3 21.4 21.5 21.5 21.5 21.6 21.7 21.7 21.6 21.6 21.5 21.4 21.4 21.3 21.2 21.1 21.0 20.9 20.7 20.6 20.4 20.3 20.2 20.1 20.1 21.4 21.5 21.6 21.7 21.8 21.9 22.0 22.0 22.0 21.9 21.8 21.7 21.6 21.6 21.4 21.3 21.2 21.1 20.9 20.8 20.6 20.5 20.3 20.2 20.1 20.1 21.6 21.7 21.9 22.0 22.1 22.2 22.4 22.5 22.4 22.3 22.1 22.0 21.9 21.7 21.6 21.4 21.3 21.2 21.0 20.8 20.6 20.5 20.4 20.2 20.1 20.1 22.0 22.1 22.2 22.3 22.5 22.7 22.8 22.9 22.8 22.7 22.5 22.3 22.1 21.9 21.8 21.6 21.4 21.3 21.1 20.8 20.7 20.5 20.4 20.2 20.1 20.1 22.3 22.5 22.6 22.7 23.0 23.2 23.4 23.5 23.4 23.1 22.9 22.7 22.4 22.2 22.0 21.8 21.6 21.3 21.1 20.9 20.7 20.6 20.4 20.3 20.1 20.1 22.7 23.3 23.6 23.5 23.7 23.9 24.2 24.3 24.1 23.8 23.4 23.0 22.7 22.4 22.2 21.9 21.7 21.4 21.1 20.9 20.7 20.6 20.4 20.3 20.1 20.1 23.7 25.3 26.1 26.0 25.9 25.7 25.9 25.7 25.2 24.6 24.0 23.5 23.1 22.7 22.4 22.1 21.8 21.5 21.2 21.0 20.8 20.6 20.4 20.3 20.1 20.1 29.6 32.4 30.7 27.4 27.8 28.4 27.8 27.3 26.4 25.5 24.7 24.0 23.5 23.0 22.6 22.3 21.9 21.6 21.3 21.1 20.9 20.6 20.5 20.3 20.2 20.1 52.4 59.5 45.7 31.4 34.1 35.5 32.9 31.2 28.3 26.4 25.4 24.6 23.9 23.4 22.9 22.5 22.1 21.7 21.5 21.2 21.0 20.7 20.5 20.3 20.2 20.1 90.3 106.6 79.8 54.7 64.1 63.2 48.7 43.0 36.1 28.3 26.2 25.1 24.3 23.7 23.2 22.7 22.3 21.9 21.6 21.3 21.0 20.8 20.6 20.4 20.2 20.1 115.7 173.1 158.3 108.0 128.8 146.5 112.2 83.1 57.2 35.7 28.4 26.1 25.0 24.2 23.5 23.0 22.5 22.1 21.7 21.4 21.0 20.8 20.5 20.3 20.2 20.1 116.9 210.3 210.3 149.6 198.8 250.8 212.9 150.6 94.6 58.3 36.1 27.9 25.9 24.7 23.9 23.2 22.6 22.1 21.7 21.3 21.0 20.7 20.5 20.3 20.2 20.1 110.7 199.7 198.6 141.5 187.6 239.5 218.3 178.7 119.5 63.6 37.5 28.3 26.2 25.0 24.0 23.2 22.6 22.1 21.7 21.3 21.0 20.7 20.5 20.3 20.2 20.1 77.3 132.3 150.8 138.0 149.5 145.4 125.8 118.4 85.2 42.0 30.3 26.8 25.6 24.8 23.9 23.1 22.5 22.0 21.6 21.3 21.0 20.7 20.5 20.4 20.2 20.1 38.9 53.0 76.9 117.4 119.1 76.0 58.0 50.8 39.3 29.7 26.9 25.5 24.7 24.1 23.5 22.8 22.3 21.9 21.6 21.2 21.0 20.8 20.6 20.4 20.2 20.1 27.1 30.5 36.3 60.0 61.5 39.3 35.2 32.4 28.5 26.9 25.7 24.8 24.1 23.6 23.0 22.5 22.1 21.7 21.4 21.1 20.9 20.7 20.5 20.3 20.2 20.1 20.0 20.0 20.1 20.1 20.1 20.1 20.1 20.1 20.1 20.1 20.1 20.1 20.1 20.1 20.1 20.1 20.0 20.0 20.0 20.0 20.0 20.0 20.0 20.0 20.0 20.0 20.1 20.1 20.1 20.1 20.1 20.1 20.1 20.1 20.1 20.1 20.1 20.1 20.1 20.1 20.1 20.1 20.1 20.1 20.1 20.1 20.1 20.1 20.1 20.1 20.1 20.0 20.2 20.2 20.2 20.2 20.2 20.2 20.2 20.2 20.3 20.3 20.3 20.2 20.2 20.2 20.2 20.2 20.2 20.2 20.2 20.2 20.2 20.2 20.2 20.2 20.1 20.0 20.3 20.3 20.3 20.3 20.3 20.3 20.3 20.4 20.4 20.4 20.4 20.4 20.3 20.3 20.3 20.3 20.3 20.3 20.3 20.3 20.3 20.3 20.3 20.2 20.1 20.0 20.4 20.4 20.4 20.5 20.5 20.4 20.4 20.5 20.5 20.6 20.6 20.5 20.5 20.4 20.4 20.4 20.4 20.4 20.4 20.4 20.4 20.4 20.3 20.2 20.1 20.0 20.5 20.5 20.6 20.6 20.6 20.6 20.6 20.6 20.7 20.7 20.7 20.7 20.6 20.6 20.6 20.6 20.6 20.5 20.5 20.5 20.5 20.4 20.3 20.2 20.1 20.0 20.6 20.7 20.7 20.8 20.7 20.7 20.7 20.8 20.8 20.8 20.9 20.9 20.8 20.8 20.8 20.8 20.7 20.7 20.6 20.6 20.5 20.4 20.3 20.2 20.1 20.0 20.7 20.8 20.9 20.9 20.9 20.9 20.9 21.0 21.0 21.0 21.0 21.1 21.0 21.0 20.9 20.9 20.8 20.8 20.7 20.6 20.5 20.4 20.3 20.2 20.1 20.0 20.9 20.9 21.0 21.1 21.1 21.1 21.1 21.2 21.2 21.2 21.2 21.2 21.2 21.1 21.1 21.0 20.9 20.9 20.8 20.7 20.5 20.4 20.3 20.2 20.1 20.0 21.0 21.1 21.2 21.3 21.3 21.3 21.3 21.4 21.5 21.4 21.4 21.4 21.3 21.3 21.2 21.1 21.0 20.9 20.8 20.7 20.6 20.4 20.3 20.2 20.1 20.1 21.2 21.3 21.4 21.5 21.5 21.5 21.6 21.7 21.8 21.8 21.7 21.6 21.5 21.4 21.3 21.2 21.1 21.0 20.9 20.8 20.6 20.5 20.3 20.2 20.1 20.1 21.5 21.6 21.6 21.7 21.8 21.9 21.9 22.0 22.1 22.1 22.0 21.8 21.7 21.6 21.5 21.4 21.3 21.1 21.0 20.8 20.7 20.5 20.3 20.2 20.1 20.1 21.8 21.9 21.9 22.0 22.1 22.2 22.3 22.5 22.5 22.4 22.3 22.1 21.9 21.8 21.6 21.5 21.4 21.2 21.1 20.9 20.7 20.5 20.4 20.2 20.1 20.1 22.1 22.2 22.2 22.3 22.4 22.6 22.7 22.9 22.9 22.8 22.6 22.4 22.2 22.0 21.8 21.7 21.5 21.3 21.1 20.9 20.7 20.5 20.4 20.2 20.1 20.1 22.4 22.5 22.6 22.7 22.8 23.0 23.3 23.5 23.4 23.2 22.9 22.7 22.4 22.2 22.1 21.9 21.7 21.4 21.2 20.9 20.7 20.5 20.4 20.2 20.1 20.1 22.8 23.1 23.1 23.2 23.4 23.7 24.1 24.2 24.1 23.8 23.4 23.0 22.8 22.5 22.3 22.0 21.8 21.5 21.2 21.0 20.7 20.5 20.4 20.2 20.1 20.1 23.8 24.9 24.9 24.8 25.0 24.9 25.1 25.3 25.0 24.5 24.0 23.5 23.2 22.9 22.6 22.2 21.9 21.6 21.3 21.0 20.8 20.6 20.4 20.3 20.1 20.1 29.5 30.7 27.9 26.4 27.7 26.7 26.1 26.4 26.0 25.2 24.6 24.0 23.6 23.2 22.9 22.4 22.0 21.7 21.4 21.1 20.8 20.6 20.4 20.3 20.1 20.1 52.2 52.5 38.7 31.4 37.3 33.7 28.9 28.1 27.1 26.1 25.3 24.6 24.1 23.6 23.1 22.6 22.1 21.8 21.5 21.2 20.9 20.7 20.5 20.3 20.2 20.1 93.8 101.6 69.2 58.5 83.7 69.2 41.6 34.9 31.9 28.4 26.3 25.2 24.6 24.0 23.4 22.8 22.3 22.0 21.6 21.3 21.0 20.8 20.5 20.3 20.2 20.1 139.0 168.2 123.9 116.8 165.1 138.9 84.1 62.0 50.9 37.2 28.7 26.2 25.2 24.4 23.7 23.1 22.6 22.1 21.7 21.4 21.0 20.7 20.5 20.3 20.2 20.1 158.2 199.2 162.9 181.9 243.1 223.8 172.7 126.2 91.6 58.1 34.9 27.6 26.0 24.8 24.0 23.3 22.7 22.2 21.7 21.3 20.9 20.7 20.5 20.3 20.2 20.1 148.1 182.2 149.9 174.4 227.8 223.2 206.6 173.7 116.4 60.4 36.3 28.0 26.1 25.0 24.2 23.4 22.7 22.1 21.7 21.3 20.9 20.7 20.5 20.3 20.2 20.1 98.5 118.6 103.4 119.3 143.0 126.3 130.3 127.7 82.9 41.1 31.2 26.9 25.6 24.7 23.9 23.2 22.5 22.0 21.6 21.3 21.0 20.7 20.5 20.3 20.2 20.1 44.7 52.1 58.1 79.5 82.4 55.6 56.1 56.0 41.0 31.0 27.7 25.7 24.9 24.2 23.5 22.9 22.3 21.9 21.5 21.2 21.0 20.7 20.5 20.3 20.2 20.1 27.6 31.7 35.0 44.7 44.0 33.5 33.0 32.0 29.5 27.4 25.8 25.0 24.4 23.8 23.2 22.6 22.1 21.8 21.4 21.1 20.9 20.7 20.5 20.3 20.2 20.1 20.0 20.0 20.1 20.1 20.1 20.1 20.1 20.1 20.1 20.1 20.1 20.1 20.1 20.1 20.1 20.1 20.1 20.1 20.1 20.1 20.1 20.1 20.1 20.1 20.1 20.0 20.1 20.1 20.1 20.1 20.1 20.1 20.1 20.1 20.1 20.1 20.1 20.1 20.1 20.1 20.1 20.1 20.1 20.1 20.1 20.1 20.1 20.1 20.1 20.1 20.1 20.1 20.2 20.2 20.2 20.2 20.2 20.2 20.2 20.3 20.3 20.3 20.3 20.2 20.2 20.2 20.2 20.2 20.2 20.2 20.2 20.2 20.2 20.2 20.2 20.2 20.1 20.1 20.3 20.3 20.3 20.4 20.4 20.3 20.4 20.4 20.4 20.4 20.4 20.4 20.4 20.3 20.3 20.3 20.3 20.3 20.3 20.3 20.3 20.3 20.3 20.2 20.1 20.1 20.4 20.4 20.5 20.5 20.5 20.5 20.5 20.5 20.6 20.6 20.7 20.7 20.6 20.5 20.5 20.5 20.4 20.5 20.5 20.5 20.5 20.4 20.3 20.2 20.1 20.1 20.5 20.6 20.6 20.7 20.7 20.6 20.7 20.7 20.7 20.8 20.9 21.0 20.8 20.7 20.7 20.7 20.6 20.6 20.6 20.6 20.5 20.4 20.3 20.2 20.1 20.1 20.7 20.7 20.8 20.9 20.8 20.8 20.8 20.8 20.9 21.0 21.1 21.2 21.1 21.0 21.0 20.9 20.8 20.8 20.7 20.7 20.6 20.5 20.3 20.2 20.1 20.1 20.8 20.8 20.9 21.0 21.0 21.0 21.0 21.0 21.0 21.2 21.3 21.4 21.3 21.2 21.1 21.0 20.9 20.9 20.8 20.7 20.6 20.5 20.3 20.2 20.1 20.1 20.9 21.0 21.1 21.2 21.2 21.2 21.2 21.2 21.2 21.3 21.5 21.5 21.4 21.3 21.2 21.1 21.0 20.9 20.9 20.8 20.6 20.5 20.3 20.2 20.1 20.1 21.0 21.1 21.2 21.3 21.4 21.4 21.4 21.4 21.5 21.6 21.7 21.6 21.5 21.4 21.3 21.2 21.1 21.0 20.9 20.8 20.7 20.5 20.3 20.2 20.1 20.1 21.2 21.3 21.4 21.5 21.6 21.6 21.7 21.8 21.8 21.9 21.9 21.8 21.7 21.5 21.4 21.3 21.2 21.1 21.0 20.9 20.7 20.5 20.3 20.2 20.1 20.1 21.5 21.6 21.6 21.8 21.9 21.9 22.0 22.2 22.2 22.2 22.1 22.0 21.8 21.7 21.5 21.4 21.3 21.2 21.1 21.0 20.8 20.5 20.3 20.2 20.1 20.1 21.9 21.9 22.0 22.0 22.1 22.2 22.4 22.6 22.6 22.5 22.4 22.2 22.0 21.8 21.7 21.6 21.5 21.3 21.2 21.0 20.8 20.5 20.3 20.2 20.1 20.1 22.2 22.3 22.3 22.4 22.5 22.6 22.8 23.0 23.0 22.9 22.6 22.4 22.2 22.0 21.9 21.8 21.6 21.4 21.2 21.0 20.7 20.5 20.4 20.2 20.1 20.1 