<?xml version="1.0"?>
<VTKFile type="PolyData" version="1.0" byte_order="LittleEndian" header_type="UInt64">
<PolyData>
<Piece NumberOfPoints="3" NumberOfVerts="0" NumberOfLines="0" NumberOfPolys="0">
    <Points>
        <DataArray type="Float32" NumberOfComponents="3" format="ascii">
        3.1980 2.0000 1.8000 5.0000 2.0000 1.8000 7.7030 5.2436 1.8000 
        </DataArray>
    </Points>
    <PointData>
        <DataArray type="Float32" Name="tag" format="ascii">
            17.0000 21.0000 25.0000 
         </DataArray>
        <DataArray type="Float32" Name="PARTICLE TEMPERATURE(C)" format="ascii">
            20.9592 21.4485 23.8705 
         </DataArray>
        <DataArray type="Float32" Name="PARTICLE AGE(s)" format="ascii">
            18.0239 18.0239 18.0239 
         </DataArray>
    </PointData>
</Piece>
</PolyData>
</VTKFile>