<?xml version="1.0"?>
<VTKFile type="PolyData" version="1.0" byte_order="LittleEndian" header_type="UInt64">
<PolyData>
<Piece NumberOfPoints="1412" NumberOfVerts="0" NumberOfLines="0" NumberOfPolys="700">
    <Points>
        <DataArray type="Float32" NumberOfComponents="3" format="ascii">
        18.0 10.0 1.8 18.0 10.0 1.8 18.0 10.0 1.8 18.0 10.0 1.8 18.0 10.2 1.8 18.0 10.2 1.8 18.0 10.0 1.8 18.0 10.0 1.8 18.0 10.0 1.8 18.1 10.0 1.6 18.3 10.0 1.8 18.0 10.0 1.8 18.0 10.2 1.8 18.1 10.2 1.6 18.1 10.0 1.6 18.3 10.0 1.8 18.1 10.0 1.6 18.1 10.2 1.6 18.3 10.2 1.8 18.0 10.2 1.8 18.0 10.8 1.8 18.0 10.8 1.8 18.0 10.2 1.8 18.0 10.2 1.8 18.0 10.8 1.8 18.1 10.8 1.6 18.1 10.2 1.6 18.3 10.2 1.8 18.1 10.2 1.6 18.1 10.8 1.6 18.3 10.8 1.8 18.0 10.8 1.8 18.0 11.4 1.8 18.0 11.4 1.8 18.0 10.8 1.8 18.0 10.8 1.8 18.0 11.4 1.8 18.1 11.4 1.6 18.1 10.8 1.6 18.3 10.8 1.8 18.1 10.8 1.6 18.1 11.4 1.6 18.3 11.4 1.8 18.0 11.4 1.8 18.0 12.0 1.8 18.0 12.0 1.8 18.0 11.4 1.8 18.0 11.4 1.8 18.0 12.0 1.8 18.1 12.0 1.6 18.1 11.4 1.6 18.3 11.4 1.8 18.1 11.4 1.6 18.1 12.0 1.6 18.3 12.0 1.8 18.0 12.0 1.8 18.0 12.6 1.8 18.0 12.6 1.8 18.0 12.0 1.8 18.0 12.0 1.8 18.0 12.6 1.8 18.1 12.6 1.6 18.1 12.0 1.6 18.3 12.0 1.8 18.1 12.0 1.6 18.1 12.6 1.6 18.3 12.6 1.8 18.0 12.6 1.8 18.0 13.2 1.8 18.0 13.2 1.8 18.0 12.6 1.8 18.0 12.6 1.8 18.0 13.2 1.8 18.1 13.2 1.6 18.1 12.6 1.6 18.3 12.6 1.8 18.1 12.6 1.6 18.1 13.2 1.6 18.3 13.2 1.8 18.3 13.1 1.8 18.3 13.1 1.8 18.3 13.2 1.8 18.3 13.2 1.8 18.0 13.2 1.8 18.0 13.8 1.8 18.0 13.8 1.8 18.0 13.2 1.8 18.0 13.8 1.8 18.0 13.8 1.8 18.0 13.8 1.8 18.0 13.8 1.8 18.0 13.2 1.8 18.0 13.8 1.8 18.0 13.8 1.8 18.1 13.8 1.6 18.1 13.2 1.6 18.0 13.8 1.8 18.0 13.8 1.8 18.0 13.8 1.8 18.3 13.2 1.8 18.1 13.2 1.6 18.1 13.8 1.6 18.2 13.8 1.7 18.3 13.2 1.8 18.3 13.2 1.8 18.2 13.8 1.7 18.3 13.8 1.8 18.0 13.8 1.8 18.0 14.0 1.8 18.0 14.0 1.8 18.0 13.8 1.8 18.0 14.0 1.8 18.0 14.0 1.8 18.0 14.0 1.8 18.0 13.8 1.8 18.0 14.0 1.8 18.1 14.0 1.6 18.0 13.8 1.8 18.0 14.0 1.8 18.0 14.0 1.8 18.3 14.0 1.8 18.1 14.0 1.6 18.1 13.8 1.6 18.0 13.8 1.8 18.1 14.0 1.6 18.2 13.8 1.7 18.1 13.8 1.6 18.1 14.0 1.6 18.3 13.8 1.8 18.2 13.8 1.7 18.1 14.0 1.6 18.3 14.0 1.8 17.4 10.0 2.4 17.4 10.0 2.4 17.4 10.0 2.4 17.4 10.0 2.4 17.4 10.2 2.4 17.4 10.2 2.4 17.4 10.0 2.4 17.4 10.0 2.4 17.4 10.0 2.4 18.0 10.0 1.8 18.0 10.0 1.8 18.0 10.0 2.4 17.4 10.0 2.4 17.4 10.2 2.4 18.0 10.2 1.8 18.0 10.0 1.8 18.0 10.0 2.4 18.0 10.0 1.8 18.3 10.0 1.8 18.6 10.0 2.1 18.6 10.0 2.4 18.3 10.0 1.8 18.3 10.2 1.8 18.6 10.2 2.1 18.6 10.0 2.1 18.6 10.0 2.4 18.6 10.0 2.1 18.9 10.0 2.4 18.8 10.0 2.4 18.6 10.0 2.1 18.6 10.2 2.1 18.8 10.2 2.3 18.9 10.0 2.4 18.8 10.0 2.4 18.9 10.0 2.4 18.9 10.2 2.4 18.8 10.2 2.4 18.9 10.0 2.4 18.8 10.2 2.3 18.9 10.2 2.4 18.9 10.0 2.4 18.8 10.0 2.4 18.8 10.0 2.4 17.4 10.2 2.4 17.4 10.8 2.4 17.4 10.8 2.4 17.4 10.2 2.4 17.4 10.2 2.4 17.4 10.8 2.4 18.0 10.8 1.8 18.0 10.2 1.8 18.3 10.2 1.8 18.3 10.8 1.8 18.6 10.8 2.1 18.6 10.2 2.1 18.6 10.2 2.1 18.6 10.8 2.1 18.7 10.8 2.2 18.8 10.2 2.3 18.8 10.2 2.4 18.9 10.2 2.4 18.9 10.8 2.4 18.8 10.8 2.4 18.9 10.2 2.4 18.8 10.2 2.3 18.7 10.8 2.2 18.9 10.8 2.4 17.4 10.8 2.4 17.4 11.4 2.4 17.4 11.4 2.4 17.4 10.8 2.4 17.4 10.8 2.4 17.4 11.4 2.4 18.0 11.4 1.8 18.0 10.8 1.8 18.3 10.8 1.8 18.3 11.4 1.8 18.6 11.4 2.1 18.6 10.8 2.1 18.6 10.8 2.1 18.6 11.4 2.1 18.6 11.4 2.1 18.7 10.8 2.2 18.8 10.8 2.4 18.9 10.8 2.4 18.9 11.4 2.4 18.8 11.4 2.4 18.9 10.8 2.4 18.7 10.8 2.2 18.6 11.4 2.1 18.9 11.4 2.4 17.4 11.4 2.4 17.4 12.0 2.4 17.4 12.0 2.4 17.4 11.4 2.4 17.4 11.4 2.4 17.4 12.0 2.4 18.0 12.0 1.8 18.0 11.4 1.8 18.3 11.4 1.8 18.3 12.0 1.8 18.5 12.0 2.0 18.6 11.4 2.1 18.6 11.4 2.1 18.5 12.0 2.0 18.6 12.0 2.1 18.6 11.4 2.1 18.6 11.4 2.1 18.6 11.4 2.1 18.6 11.4 2.1 18.6 11.4 2.1 18.6 12.0 2.1 18.9 12.0 2.4 18.9 11.4 2.4 18.6 11.4 2.1 18.8 11.4 2.4 18.9 11.4 2.4 18.9 12.0 2.4 18.8 12.0 2.4 17.4 12.0 2.4 17.4 12.6 2.4 17.4 12.6 2.4 17.4 12.0 2.4 17.4 12.0 2.4 17.4 12.6 2.4 18.0 12.6 1.8 18.0 12.0 1.8 18.5 12.0 2.0 18.4 12.6 1.9 18.6 12.6 2.1 18.6 12.0 2.1 18.5 12.0 2.0 18.3 12.0 1.8 18.3 12.6 1.8 18.4 12.6 1.9 18.6 12.0 2.1 18.6 12.6 2.1 18.9 12.6 2.4 18.9 12.0 2.4 18.8 12.0 2.4 18.9 12.0 2.4 18.9 12.6 2.4 18.8 12.6 2.4 17.4 12.6 2.4 17.4 12.9 2.4 17.4 12.9 2.4 17.4 12.6 2.4 17.4 12.9 2.4 17.4 13.2 2.4 17.4 13.2 2.4 17.4 12.9 2.4 17.4 12.6 2.4 17.4 12.9 2.4 17.6 13.2 2.2 18.0 13.2 1.8 18.0 12.6 1.8 17.4 12.9 2.4 17.4 13.2 2.4 17.6 13.2 2.2 18.4 12.6 1.9 18.3 13.1 1.8 18.3 13.2 1.8 18.6 13.2 2.1 18.6 12.6 2.1 18.4 12.6 1.9 18.3 12.6 1.8 18.3 13.1 1.8 18.6 12.6 2.1 18.6 13.2 2.1 18.9 13.2 2.4 18.9 12.6 2.4 18.8 12.6 2.4 18.9 12.6 2.4 18.9 13.2 2.4 18.8 13.2 2.4 17.4 13.2 2.4 17.4 13.8 2.4 17.4 13.8 2.4 17.4 13.2 2.4 17.4 13.2 2.4 17.4 13.8 2.4 18.0 13.8 1.8 18.0 13.8 1.8 17.6 13.2 2.2 18.0 13.2 1.8 17.6 13.2 2.2 18.0 13.8 1.8 18.3 13.2 1.8 18.3 13.8 1.8 18.6 13.8 2.1 18.6 13.2 2.1 18.6 13.2 2.1 18.6 13.8 2.1 18.9 13.8 2.4 18.9 13.2 2.4 18.8 13.2 2.4 18.9 13.2 2.4 18.9 13.8 2.4 18.8 13.8 2.4 17.4 13.8 2.4 17.4 14.0 2.4 17.4 14.0 2.4 17.4 13.8 2.4 17.4 14.0 2.4 17.4 14.0 2.4 17.4 14.0 2.4 17.4 13.8 2.4 17.4 14.0 2.4 18.0 14.0 1.8 18.0 13.8 1.8 17.4 14.0 2.4 17.4 14.0 2.4 18.0 14.0 2.4 18.0 14.0 1.8 18.0 14.0 1.8 18.0 14.0 1.8 18.0 14.0 2.4 18.6 14.0 2.4 18.6 14.0 2.1 18.3 14.0 1.8 18.3 13.8 1.8 18.3 14.0 1.8 18.6 14.0 2.1 18.6 13.8 2.1 18.6 13.8 2.1 18.6 14.0 2.1 18.9 14.0 2.4 18.9 13.8 2.4 18.6 14.0 2.1 18.6 14.0 2.4 18.8 14.0 2.4 18.9 14.0 2.4 18.8 13.8 2.4 18.9 13.8 2.4 18.9 14.0 2.4 18.8 13.9 2.4 18.9 14.0 2.4 18.8 14.0 2.4 18.8 13.9 2.4 18.9 14.0 2.4 18.8 14.0 2.4 18.8 14.0 2.4 16.8 10.0 3.0 16.8 10.0 3.0 16.8 10.0 3.0 16.8 10.0 3.0 16.8 10.2 3.0 16.8 10.2 3.0 16.8 10.0 3.0 16.8 10.0 3.0 16.8 10.0 3.0 17.4 10.0 2.4 17.4 10.0 2.4 17.4 10.0 3.0 16.8 10.0 3.0 16.8 10.2 3.0 17.4 10.2 2.4 17.4 10.0 2.4 17.4 10.0 3.0 17.4 10.0 2.4 18.0 10.0 2.4 18.0 10.0 2.9 17.8 10.0 3.0 17.8 10.0 3.0 18.0 10.0 2.9 18.0 10.0 3.0 18.0 10.0 2.9 18.0 10.0 2.4 18.6 10.0 2.4 18.6 10.0 2.5 18.0 10.0 3.0 18.0 10.0 2.9 18.6 10.0 2.5 18.6 10.0 2.6 18.2 10.0 3.0 18.2 10.2 3.0 18.2 10.0 3.0 18.6 10.0 2.6 18.6 10.2 2.6 18.6 10.0 2.5 18.6 10.0 2.4 18.8 10.0 2.4 18.6 10.0 2.6 18.6 10.0 2.5 18.8 10.0 2.4 18.8 10.0 2.4 18.6 10.2 2.6 18.6 10.0 2.6 18.8 10.0 2.4 18.8 10.2 2.4 16.8 10.2 3.0 16.8 10.8 3.0 16.8 10.8 3.0 16.8 10.2 3.0 16.8 10.2 3.0 16.8 10.8 3.0 17.4 10.8 2.4 17.4 10.2 2.4 18.2 10.8 3.0 18.2 10.2 3.0 18.6 10.2 2.6 18.6 10.8 2.6 18.6 10.8 2.6 18.6 10.2 2.6 18.8 10.2 2.4 18.8 10.8 2.4 16.8 10.8 3.0 16.8 11.4 3.0 16.8 11.4 3.0 16.8 10.8 3.0 16.8 10.8 3.0 16.8 11.4 3.0 17.4 11.4 2.4 17.4 10.8 2.4 18.2 11.4 3.0 18.2 10.8 3.0 18.6 10.8 2.6 18.6 11.4 2.6 18.6 11.4 2.6 18.6 10.8 2.6 18.8 10.8 2.4 18.8 11.4 2.4 16.8 11.4 3.0 16.8 12.0 3.0 16.8 12.0 3.0 16.8 11.4 3.0 16.8 11.4 3.0 16.8 12.0 3.0 17.4 12.0 2.4 17.4 11.4 2.4 18.2 12.0 3.0 18.2 11.4 3.0 18.6 11.4 2.6 18.6 12.0 2.6 18.6 12.0 2.6 18.6 11.4 2.6 18.8 11.4 2.4 18.8 12.0 2.4 16.8 12.0 3.0 16.8 12.1 3.0 16.8 12.1 3.0 16.8 12.0 3.0 16.8 12.1 3.0 16.8 12.6 3.0 16.8 12.6 3.0 16.8 12.1 3.0 16.8 12.0 3.0 16.8 12.1 3.0 17.2 12.6 2.6 17.4 12.6 2.4 17.4 12.0 2.4 16.8 12.1 3.0 16.8 12.6 3.0 17.2 12.6 2.6 18.2 12.6 3.0 18.2 12.0 3.0 18.6 12.0 2.6 18.6 12.6 2.6 18.6 12.6 2.6 18.6 12.0 2.6 18.8 12.0 2.4 18.8 12.6 2.4 16.8 12.6 3.0 16.8 13.2 3.0 16.8 13.2 3.0 16.8 12.6 3.0 16.8 12.6 3.0 16.8 13.2 3.0 17.4 13.2 2.4 17.4 12.9 2.4 17.2 12.6 2.6 17.4 12.6 2.4 17.2 12.6 2.6 17.4 12.9 2.4 18.3 13.2 2.9 18.2 13.1 3.0 18.2 12.6 3.0 18.6 12.6 2.6 18.6 13.2 2.6 18.2 13.1 3.0 18.3 13.2 2.9 18.2 13.2 3.0 18.6 13.2 2.6 18.6 12.6 2.6 18.8 12.6 2.4 18.8 13.2 2.4 16.8 13.2 3.0 16.8 13.8 3.0 16.8 13.8 3.0 16.8 13.2 3.0 16.8 13.2 3.0 16.8 13.8 3.0 17.4 13.8 2.4 17.4 13.2 2.4 18.3 13.2 2.9 18.6 13.2 2.6 18.6 13.6 2.6 18.2 13.8 3.0 18.2 13.2 3.0 18.3 13.2 2.9 18.6 13.6 2.6 18.6 13.8 2.6 18.6 13.6 2.6 18.6 13.2 2.6 18.8 13.2 2.4 18.8 13.8 2.4 18.7 13.8 2.5 18.6 13.8 2.6 18.6 13.6 2.6 18.7 13.8 2.5 16.8 13.8 3.0 16.8 14.0 3.0 16.8 14.0 3.0 16.8 13.8 3.0 16.8 14.0 3.0 16.8 14.0 3.0 16.8 14.0 3.0 16.8 13.8 3.0 16.8 14.0 3.0 17.4 14.0 2.4 17.4 13.8 2.4 16.8 14.0 3.0 16.8 14.0 3.0 17.4 14.0 3.0 17.4 14.0 2.4 17.4 14.0 2.4 17.4 14.0 2.4 17.4 14.0 3.0 17.8 14.0 3.0 18.0 14.0 2.9 18.0 14.0 2.4 17.8 14.0 3.0 18.0 14.0 3.0 18.0 14.0 2.9 18.0 14.0 2.4 18.0 14.0 2.9 18.6 14.0 2.5 18.6 14.0 2.4 18.0 14.0 2.9 18.0 14.0 3.0 18.2 14.0 3.0 18.6 14.0 2.6 18.6 14.0 2.5 18.2 14.0 3.0 18.2 13.8 3.0 18.6 13.8 2.6 18.6 14.0 2.6 18.6 14.0 2.4 18.6 14.0 2.5 18.8 14.0 2.4 18.6 14.0 2.6 18.6 13.8 2.6 18.7 13.8 2.5 18.8 13.9 2.4 18.8 14.0 2.4 18.6 14.0 2.5 18.6 14.0 2.6 18.8 14.0 2.4 18.8 14.0 2.4 18.7 13.8 2.5 18.8 13.8 2.4 18.8 13.9 2.4 16.2 10.0 3.6 16.2 10.0 3.6 16.2 10.0 3.6 16.2 10.0 3.6 16.2 10.2 3.6 16.2 10.2 3.6 16.2 10.0 3.6 16.2 10.0 3.6 16.2 10.0 3.6 16.8 10.0 3.0 16.8 10.0 3.0 16.8 10.0 3.6 16.8 10.0 3.6 16.2 10.0 3.6 16.2 10.2 3.6 16.8 10.2 3.0 16.8 10.0 3.0 16.8 10.0 3.6 16.8 10.0 3.6 16.8 10.0 3.6 16.8 10.0 3.6 16.8 10.0 3.0 17.4 10.0 3.0 17.4 10.0 3.2 16.8 10.0 3.6 16.8 10.0 3.6 17.4 10.0 3.2 17.4 10.0 3.6 17.4 10.0 3.2 17.4 10.0 3.0 17.8 10.0 3.0 17.4 10.0 3.6 17.4 10.0 3.2 17.8 10.0 3.0 18.0 10.0 3.0 18.0 10.0 3.2 17.6 10.0 3.6 17.6 10.2 3.6 17.6 10.0 3.6 18.0 10.0 3.2 18.0 10.2 3.2 18.0 10.0 3.2 18.0 10.0 3.0 18.2 10.0 3.0 18.0 10.2 3.2 18.0 10.0 3.2 18.2 10.0 3.0 18.2 10.2 3.0 16.2 10.2 3.6 16.2 10.8 3.6 16.2 10.8 3.6 16.2 10.2 3.6 16.2 10.2 3.6 16.2 10.8 3.6 16.8 10.8 3.0 16.8 10.2 3.0 17.6 10.8 3.6 17.6 10.2 3.6 18.0 10.2 3.2 18.0 10.8 3.2 18.0 10.8 3.2 18.0 10.2 3.2 18.2 10.2 3.0 18.2 10.8 3.0 16.2 10.8 3.6 16.2 11.2 3.6 16.2 11.2 3.6 16.2 10.8 3.6 16.2 11.2 3.6 16.2 11.4 3.6 16.2 11.4 3.6 16.2 11.2 3.6 16.2 10.8 3.6 16.2 11.2 3.6 16.3 11.4 3.5 16.8 11.4 3.0 16.8 10.8 3.0 16.2 11.2 3.6 16.2 11.4 3.6 16.3 11.4 3.5 17.6 11.4 3.6 17.6 10.8 3.6 18.0 10.8 3.2 18.0 11.4 3.2 18.0 11.4 3.2 18.0 10.8 3.2 18.2 10.8 3.0 18.2 11.4 3.0 16.2 11.4 3.6 16.2 12.0 3.6 16.2 12.0 3.6 16.2 11.4 3.6 16.2 11.4 3.6 16.2 12.0 3.6 16.7 12.0 3.1 16.3 11.4 3.5 16.8 11.4 3.0 16.3 11.4 3.5 16.7 1
[...]
    <CellData>
        <DataArray type="Float32" Name="WALL TEMPERATURE" format="ascii">
            82.8 102.9 102.9 357.4 357.4 198.0 198.0 186.5 186.5 159.8 159.8 306.0 306.0 291.9 291.9 267.1 267.1 477.4 477.4 473.5 473.5 449.7 449.7 772.3 772.3 886.8 886.8 692.9 692.9 931.2 931.2 1036.9 1036.9 807.6 807.6 980.1 980.1 1071.4 1071.4 1071.4 1071.4 696.3 696.3 696.3 696.3 922.5 922.5 922.5 902.1 1012.6 1012.6 1012.6 1012.6 423.3 423.3 161.6 705.4 705.4 769.2 769.2 722.3 813.5 813.5 813.5 79.9 77.7 77.7 185.8 185.8 185.8 91.3 91.3 317.9 317.9 317.9 165.8 165.8 319.7 319.7 143.1 143.1 183.5 183.5 143.1 319.7 115.4 115.4 138.7 138.7 262.6 262.6 230.6 230.6 285.9 285.9 230.6 230.6 201.6 201.6 237.7 237.7 441.3 441.3 404.3 404.3 455.0 455.0 404.3 404.3 382.9 382.9 424.2 424.2 826.6 826.6 826.6 826.0 748.0 748.0 748.0 748.0 722.2 722.2 568.9 568.9 647.7 647.7 961.3 961.3 961.7 961.7 865.1 865.1 830.4 830.4 644.5 644.5 644.5 644.5 834.4 834.4 834.4 779.9 989.5 989.5 989.5 989.9 885.4 885.4 843.6 843.6 549.8 549.8 672.8 672.8 672.8 725.2 945.6 945.6 861.1 861.1 811.0 811.0 325.5 325.5 136.0 381.9 381.9 358.2 358.2 358.2 708.8 708.8 708.8 781.4 781.4 742.4 742.4 712.0 712.0 711.2 711.2 707.6 712.0 72.6 64.3 64.3 142.1 142.1 142.1 71.2 71.2 67.7 67.7 67.7 67.7 176.7 176.7 176.7 176.7 176.7 94.7 94.7 236.4 236.4 236.4 108.9 108.9 92.3 92.3 103.7 103.7 143.2 143.2 167.3 167.3 157.7 157.7 181.0 181.0 248.7 248.7 286.4 286.4 320.6 320.6 361.2 361.2 451.8 451.8 496.2 496.2 474.6 474.6 474.6 474.6 599.3 599.3 599.3 561.9 614.6 614.6 657.9 657.9 530.4 530.4 638.5 638.5 638.5 678.2 662.3 662.3 662.3 649.6 692.1 692.1 447.7 447.7 515.9 515.9 598.6 590.8 590.8 590.8 615.6 615.6 615.6 615.6 247.6 247.6 115.3 292.5 292.5 264.8 264.8 264.8 117.9 117.9 117.9 117.9 332.7 332.7 332.7 332.7 332.7 431.3 431.3 466.2 479.5 479.5 479.5 466.2 466.2 540.8 62.6 53.3 53.3 110.8 110.8 110.8 110.8 59.0 59.0 110.8 75.1 75.1 75.1 75.1 112.8 112.8 112.8 112.8 112.8 71.7 71.7 171.6 78.3 78.3 73.8 73.8 82.6 82.6 102.6 102.6 115.7 115.7 118.1 118.1 118.0 118.0 170.4 170.4 170.4 150.6 175.7 175.7 200.5 200.5 255.7 255.7 317.3 317.3 332.6 332.6 335.3 335.3 384.2 384.2 388.2 388.2 448.1 448.1 448.1 487.0 498.0 498.0 498.0 433.4 542.1 542.1 418.5 418.5 493.4 493.4 543.6 524.0 524.0 524.0 568.1 568.1 568.1 568.1 338.0 338.0 409.3 409.3 479.3 479.3 526.2 526.2 176.3 176.3 90.8 217.8 217.8 198.1 198.1 198.1 198.1 198.1 122.2 122.2 122.2 122.2 212.3 212.3 212.3 212.3 212.3 320.1 320.1 364.9 364.9 326.4 45.0 44.1 44.1 81.0 81.0 81.0 81.0 49.3 49.3 81.0 66.7 66.7 66.7 66.7 76.0 76.0 76.0 58.5 58.5 110.7 64.1 64.1 58.3 58.3 58.3 58.3 76.2 76.2 76.2 68.7 76.8 76.8 88.7 88.7 88.1 88.1 117.1 117.1 117.1 126.3 135.2 135.2 135.2 110.3 145.2 145.2 181.8 181.8 224.8 224.8 251.5 244.6 244.6 244.6 270.7 270.7 270.7 328.5 279.7 279.7 349.4 349.4 359.8 359.8 397.6 397.6 397.6 397.6 291.4 291.4 372.6 372.6 389.9 389.9 431.1 431.1 228.1 228.1 295.9 295.9 352.5 352.5 399.0 399.0 113.9 113.9 59.8 150.2 150.2 138.1 138.1 138.1 138.1 138.1 102.0 102.0 102.0 102.0 119.7 119.7 119.7 222.8 222.8 262.2 262.2 205.3 58.3 58.3 58.3 108.5 108.5 49.5 49.5 49.5 62.0 62.1 62.1 62.1 62.1 100.8 100.8 54.6 54.6 54.6 48.5 48.5 69.0 52.1 52.1 169.7 169.7 67.9 67.9 67.9 67.9 158.1 158.1 66.5 66.5 66.5 60.4 67.0 67.0 267.9 267.9 111.2 111.2 258.6 258.6 98.5 94.4 94.4 94.4 101.0 101.0 97.0 97.0 415.8 415.8 205.9 205.9 404.8 404.8 167.0 167.0 192.4 192.4 490.8 490.8 490.8 477.1 287.0 287.0 472.9 472.9 472.9 472.9 260.3 260.3 297.7 297.7 499.5 499.5 301.8 301.8 514.9 514.9 487.9 487.9 272.9 272.9 314.4 314.4 476.3 476.3 241.5 241.5 476.3 476.3 452.3 452.3 233.6 233.6 274.6 274.6 93.1 93.1 383.2 383.2 93.1 144.0 144.0 383.2 100.6 363.5 363.5 100.6 100.6 100.6 100.6 79.5 79.5 79.5 140.8 140.8 165.9 165.9 108.8 57.9 57.9 49.1 49.1 91.7 91.7 49.2 91.5 51.5 45.5 45.5 64.6 64.6 64.6 64.6 146.9 146.9 146.9 146.9 56.3 56.3 56.3 56.3 101.1 101.1 246.7 246.7 246.7 246.7 80.1 80.1 172.0 172.0 400.4 400.4 382.7 382.7 137.3 137.3 223.7 223.7 458.5 438.5 438.5 438.5 204.0 204.0 230.5 230.5 450.9 450.9 205.7 205.7 196.0 196.0 422.8 422.8 174.0 174.0 130.8 130.8 95.4 95.4 341.0 341.0 109.0 109.0 74.8 
         </DataArray>
        <DataArray type="Float32" Name="water drops AMPUA" format="ascii">
            0.0 0.0 0.0 0.0 0.0 0.0 0.0 0.0 0.0 0.0 0.0 0.0 0.0 0.0 0.0 0.0 0.0 0.0 0.0 0.0 0.0 0.0 0.0 0.0 0.0 0.0 0.0 0.0 0.0 0.0 0.0 0.0 0.0 0.0 0.0 0.0 0.0 0.0 0.0 0.0 0.0 0.0 0.0 0.0 0.0 0.0 0.0 0.0 0.0 0.0 0.0 0.0 0.0 0.0 0.0 0.0 0.0 0.0 0.0 0.0 0.0 0.0 0.0 0.0 0.0 0.0 0.0 0.0 0.0 0.0 0.0 0.0 0.0 0.0 0.0 0.0 0.0 0.0 0.0 0.0 0.0 0.0 0.0 0.0 0.0 0.0 0.0 0.0 0.0 0.0 0.0 0.0 0.0 0.0 0.0 0.0 0.0 0.0 0.0 0.0 0.0 0.0 0.0 0.0 0.0 0.0 0.0 0.0 0.0 0.0 0.0 0.0 0.0 0.0 0.0 0.0 0.0 0.0 0.0 0.0 0.0 0.0 0.0 0.0 0.0 0.0 0.0 0.0 0.0 0.0 0.0 0.0 0.0 0.0 0.0 0.0 0.0 0.0 0.0 0.0 0.0 0.0 0.0 0.0 0.0 0.0 0.0 0.0 0.0 0.0 0.0 0.0 0.0 0.0 0.0 0.0 0.0 0.0 0.0 0.0 0.0 0.0 0.0 0.0 0.0 0.0 0.0 0.0 0.0 0.0 0.0 0.0 0.0 0.0 0.0 0.0 0.0 0.0 0.0 0.0 0.0 0.0 0.0 0.0 0.4 0.0 0.0 0.0 0.0 0.0 0.0 0.0 0.0 0.0 0.0 0.0 0.0 0.0 0.0 0.0 0.0 0.0 0.0 0.0 0.0 0.0 0.0 0.0 0.0 0.0 0.0 0.0 0.0 0.0 0.0 0.0 0.0 0.0 0.0 0.0 0.0 0.0 0.0 0.0 0.0 0.0 0.0 0.0 0.0 0.0 0.0 0.0 0.0 0.0 0.0 0.0 0.0 0.0 0.0 0.0 0.0 0.0 0.0 0.0 0.0 0.0 0.0 0.0 0.0 0.0 0.0 0.0 0.0 0.0 0.0 0.0 0.0 0.0 0.0 0.0 0.0 0.0 0.0 0.0 0.0 0.0 0.0 0.0 0.0 0.0 0.0 0.0 0.0 0.0 0.0 0.0 0.0 0.0 0.0 0.0 0.0 0.0 0.0 0.0 0.0 0.0 0.0 0.0 0.0 0.0 0.0 0.0 0.0 0.0 0.0 0.0 0.0 0.0 0.0 0.0 0.0 0.0 0.0 0.0 0.0 0.0 0.0 0.0 0.0 0.0 0.0 0.0 0.0 0.0 0.0 0.0 0.0 0.0 0.0 0.0 0.0 0.0 0.0 0.0 0.0 0.0 0.0 0.0 0.0 0.0 0.0 0.0 0.0 0.0 0.0 0.0 0.0 0.0 0.0 0.0 0.0 0.0 0.0 0.0 0.0 0.0 0.0 0.0 0.0 0.0 0.0 0.0 0.0 0.0 0.0 0.0 0.0 0.0 0.0 0.0 0.0 0.0 0.0 0.0 0.0 0.0 0.0 0.0 0.0 0.0 0.0 0.0 0.0 0.0 0.0 0.0 0.0 0.0 0.0 0.0 0.0 0.0 0.0 0.0 0.0 0.0 0.0 0.0 0.0 0.0 0.0 0.0 0.0 0.0 0.0 0.0 0.0 0.0 0.0 0.0 0.0 0.0 0.0 0.0 0.0 0.0 0.0 0.0 0.0 0.0 0.0 0.0 0.0 0.0 0.0 0.0 0.0 0.0 0.0 0.0 0.0 0.0 0.0 0.0 0.0 0.0 0.0 0.0 0.0 0.0 0.0 0.0 0.0 0.0 0.0 0.0 0.0 0.0 0.0 0.0 0.0 0.0 0.0 0.0 0.0 0.0 0.0 8.5 0.0 0.0 0.0 0.0 0.0 0.0 0.0 0.0 0.0 0.0 0.0 0.0 0.0 0.0 0.0 0.0 0.0 0.0 0.0 0.0 0.0 0.0 0.0 0.0 0.0 0.0 0.0 0.0 0.0 0.0 0.0 0.0 0.0 0.0 0.0 0.0 0.0 0.0 0.0 0.0 0.0 0.0 0.0 0.0 0.0 0.0 0.0 0.0 0.0 0.0 0.0 0.0 0.0 0.0 0.0 0.0 0.0 0.0 0.0 0.0 0.0 0.0 0.0 0.0 0.0 0.0 0.0 0.0 0.0 0.0 0.0 0.0 0.0 0.0 0.0 0.0 0.0 0.0 0.0 0.0 0.0 0.0 0.0 0.0 0.0 0.0 0.0 0.0 0.0 0.0 0.0 0.0 0.0 0.0 0.0 0.0 0.0 0.0 0.0 0.0 0.0 0.0 0.0 0.0 0.0 0.0 0.0 0.0 0.0 0.0 0.0 0.0 0.0 0.0 0.0 0.0 0.0 0.0 0.0 0.0 0.0 0.0 0.0 0.0 0.0 0.0 0.0 0.0 0.0 0.0 0.0 0.0 0.0 0.0 0.0 0.0 0.0 0.0 0.0 0.0 0.0 0.0 0.0 0.0 0.0 0.0 0.0 0.0 0.0 0.0 0.0 0.0 0.0 0.0 0.0 0.0 0.0 0.0 0.0 0.0 0.0 0.0 0.0 0.0 0.0 0.0 0.0 0.0 0.0 0.0 0.0 0.0 0.0 0.0 0.0 0.0 0.0 0.0 0.0 0.0 0.0 0.0 0.0 0.0 0.0 0.0 0.0 0.0 0.0 0.0 0.0 0.0 0.0 0.0 0.0 0.0 0.0 0.0 0.0 0.0 0.0 0.0 0.0 0.0 0.0 0.0 0.0 0.0 0.0 0.0 0.0 0.0 0.0 0.0 0.0 0.0 0.0 0.0 0.0 0.0 0.0 0.0 0.0 0.0 0.0 0.0 0.0 0.0 0.0 0.0 0.0 0.0 0.0 0.0 0.0 0.0 0.0 0.0 0.0 0.0 0.0 0.0 0.0 0.0 0.0 0.0 0.0 0.0 0.0 0.0 0.0 0.0 
         </DataArray>
        <DataArray type="Float32" Name="GAS TEMPERATURE" format="ascii">
            26.6 26.6 26.6 29.2 29.2 29.2 29.2 29.2 29.2 30.9 30.9 37.1 37.1 37.1 37.1 45.7 45.7 78.1 78.1 78.1 78.1 98.5 98.5 179.9 179.9 179.9 179.9 297.9 297.9 406.8 406.8 406.8 406.8 362.6 362.6 465.4 465.4 465.4 465.4 465.4 465.4 300.3 300.3 300.3 300.3 391.4 391.4 391.4 391.4 391.4 391.4 391.4 391.4 132.8 132.8 132.8 117.7 117.7 117.7 117.7 117.7 117.7 117.7 117.7 26.8 26.8 26.8 28.8 28.8 28.8 28.8 28.8 33.5 33.5 33.5 33.5 33.5 30.5 30.5 30.5 30.5 30.5 30.5 30.5 30.5 32.0 32.0 30.9 30.9 41.7 41.7 41.7 41.7 41.7 41.7 41.7 41.7 51.5 51.5 45.7 45.7 109.0 109.0 109.0 109.0 109.0 109.0 109.0 109.0 120.3 120.3 98.5 98.5 315.6 315.6 315.6 315.6 315.6 315.6 315.6 315.6 315.6 315.6 233.7 233.7 297.9 297.9 395.2 395.2 395.2 395.2 395.2 395.2 395.2 395.2 267.2 267.2 267.2 267.2 362.6 362.6 362.6 362.6 412.7 412.7 412.7 412.7 412.7 412.7 412.7 412.7 241.9 241.9 300.3 300.3 300.3 300.3 431.9 431.9 431.9 431.9 431.9 431.9 145.6 145.6 145.6 184.3 184.3 184.3 184.3 184.3 213.6 213.6 213.6 213.6 213.6 346.2 346.2 346.2 346.2 346.2 346.2 346.2 346.2 28.9 28.9 28.9 27.2 27.2 27.2 27.2 27.2 26.1 26.1 26.1 26.1 30.4 30.4 30.4 30.4 30.4 30.4 30.4 29.6 29.6 29.6 29.6 29.6 33.9 33.9 32.0 32.0 35.4 35.4 35.4 35.4 56.6 56.6 51.5 51.5 50.1 50.1 50.1 50.1 158.8 158.8 120.3 120.3 156.3 156.3 156.3 156.3 212.9 212.9 212.9 212.9 233.7 233.7 233.7 233.7 329.3 329.3 329.3 329.3 229.3 229.3 267.2 267.2 267.2 267.2 337.8 337.8 337.8 337.8 337.8 337.8 238.9 238.9 241.9 241.9 327.7 327.7 327.7 327.7 327.7 327.7 327.7 327.7 132.0 132.0 132.0 150.7 150.7 150.7 150.7 150.7 171.7 171.7 171.7 171.7 188.7 188.7 188.7 188.7 188.7 188.7 188.7 216.7 216.7 216.7 216.7 216.7 216.7 216.7 26.8 26.8 26.8 27.3 27.3 27.3 27.3 27.3 27.3 27.3 25.4 25.4 25.4 25.4 25.8 25.8 25.8 25.8 25.8 25.8 25.8 28.3 28.3 28.3 35.1 35.1 33.9 33.9 28.4 28.4 28.4 28.4 58.9 58.9 58.9 58.9 56.6 56.6 56.6 56.6 33.3 33.3 33.3 33.3 174.9 174.9 158.8 158.8 158.8 158.8 115.4 115.4 115.4 115.4 196.0 196.0 212.9 212.9 212.9 212.9 257.9 257.9 257.9 257.9 257.9 257.9 207.0 207.0 229.3 229.3 194.4 194.4 194.4 194.4 194.4 194.4 194.4 194.4 222.8 222.8 238.9 238.9 144.3 144.3 144.3 144.3 139.2 139.2 139.2 153.3 153.3 153.3 153.3 153.3 153.3 153.3 148.5 148.5 148.5 148.5 140.8 140.8 140.8 140.8 140.8 140.8 140.8 119.6 119.6 119.6 33.0 33.0 33.0 32.3 32.3 32.3 32.3 32.3 32.3 32.3 27.5 27.5 27.5 27.5 25.6 25.6 25.6 25.6 25.6 24.6 24.6 24.6 37.6 37.6 37.6 37.6 35.1 35.1 35.1 35.1 27.0 27.0 27.0 27.0 75.8 75.8 58.9 58.9 58.9 58.9 52.1 52.1 52.1 52.1 52.1 52.1 173.8 173.8 174.9 174.9 125.3 125.3 125.3 125.3 125.3 125.3 125.3 125.3 184.5 184.5 196.0 196.0 200.4 200.4 200.4 200.4 200.4 200.4 191.0 191.0 207.0 207.0 174.1 174.1 174.1 174.1 174.9 174.9 222.8 222.8 120.2 120.2 120.2 120.2 94.3 94.3 94.3 160.2 160.2 160.2 160.2 160.2 160.2 160.2 157.5 157.5 157.5 157.5 141.6 141.6 141.6 141.6 141.6 92.2 92.2 92.2 30.9 30.9 30.9 30.9 30.9 30.9 30.9 30.9 32.1 32.1 32.1 32.1 32.1 32.1 32.1 31.1 31.1 31.1 31.1 31.1 27.3 27.3 27.3 40.4 40.4 40.4 40.4 40.4 40.4 33.8 33.8 30.3 30.3 30.3 30.3 30.3 30.3 59.1 59.1 59.1 59.1 43.8 43.8 40.9 40.9 40.9 40.9 40.9 40.9 40.9 40.9 129.3 129.3 129.3 129.3 86.4 86.4 80.3 80.3 80.3 80.3 158.1 158.1 158.1 158.1 158.1 158.1 153.1 153.1 153.1 153.1 114.4 114.4 114.4 114.4 186.7 186.7 186.7 186.7 186.7 186.7 166.2 166.2 147.4 147.4 147.4 147.4 171.0 171.0 171.0 171.0 171.0 171.0 148.4 148.4 135.5 135.5 135.5 135.5 73.5 73.5 73.5 73.5 73.5 73.5 73.5 73.5 155.4 155.4 155.4 155.4 155.4 155.4 155.4 153.6 153.6 153.6 153.6 153.6 130.8 130.8 130.8 29.8 29.8 29.8 29.8 29.8 29.8 29.8 29.8 29.1 29.1 29.1 33.8 33.8 33.8 33.8 33.8 33.8 33.8 33.8 30.4 30.4 30.4 30.4 43.8 43.8 43.8 43.8 43.8 43.8 37.2 37.2 86.4 86.4 86.4 86.4 86.4 86.4 75.6 75.6 153.1 153.1 153.1 153.1 153.1 153.1 147.3 147.3 166.2 166.2 166.2 166.2 137.4 137.4 148.4 148.4 148.4 148.4 137.1 137.1 147.2 147.2 147.2 147.2 147.2 147.2 144.4 144.4 144.4 
         </DataArray>
        <DataArray type="Float32" Name="HRRPUA" format="ascii">
            0.0 0.0 0.0 0.0 0.0 0.0 0.0 0.0 0.0 0.0 0.0 0.0 0.0 0.0 0.0 0.0 0.0 0.0 0.0 0.0 0.0 0.0 0.0 0.0 0.0 0.0 0.0 0.0 0.0 0.0 0.0 0.0 0.0 0.0 0.0 0.0 0.0 0.0 0.0 0.0 0.0 0.0 0.0 0.0 0.0 0.0 0.0 0.0 0.0 0.0 0.0 0.0 0.0 0.0 0.0 0.0 0.0 0.0 0.0 0.0 0.0 0.0 0.0 0.0 0.0 0.0 0.0 0.0 0.0 0.0 0.0 0.0 0.0 0.0 0.0 0.0 0.0 0.0 0.0 0.0 0.0 0.0 0.0 0.0 0.0 0.0 0.0 0.0 0.0 0.0 0.0 0.0 0.0 0.0 0.0 0.0 0.0 0.0 0.0 0.0 0.0 0.0 0.0 0.0 0.0 0.0 0.0 0.0 0.0 0.0 0.0 0.0 0.0 0.0 0.0 0.0 0.0 0.0 0.0 0.0 0.0 0.0 0.0 0.0 0.0 0.0 0.0 0.0 0.0 0.0 0.0 0.0 0.0 0.0 0.0 0.0 0.0 0.0 0.0 0.0 0.0 0.0 0.0 0.0 0.0 0.0 0.0 0.0 0.0 0.0 0.0 0.0 0.0 0.0 0.0 0.0 0.0 0.0 0.0 0.0 0.0 0.0 0.0 0.0 0.0 0.0 0.0 0.0 0.0 0.0 0.0 0.0 0.0 0.0 0.0 0.0 0.0 0.0 0.0 0.0 0.0 0.0 0.0 0.0 0.0 0.0 0.0 0.0 0.0 0.0 0.0 0.0 0.0 0.0 0.0 0.0 0.0 0.0 0.0 0.0 0.0 0.0 0.0 0.0 0.0 0.0 0.0 0.0 0.0 0.0 0.0 0.0 0.0 0.0 0.0 0.0 0.0 0.0 0.0 0.0 0.0 0.0 0.0 0.0 0.0 0.0 0.0 0.0 0.0 0.0 0.0 0.0 0.0 0.0 0.0 0.0 0.0 0.0 0.0 0.0 0.0 0.0 0.0 0.0 0.0 0.0 0.0 0.0 0.0 0.0 0.0 0.0 0.0 0.0 0.0 0.0 0.0 0.0 0.0 0.0 0.0 0.0 0.0 0.0 0.0 0.0 0.0 0.0 0.0 0.0 0.0 0.0 0.0 0.0 0.0 0.0 0.0 0.0 0.0 0.0 0.0 0.0 0.0 0.0 0.0 0.0 0.0 0.0 0.0 0.0 0.0 0.0 0.0 0.0 0.0 0.0 0.0 0.0 0.0 0.0 0.0 0.0 0.0 0.0 0.0 0.0 0.0 0.0 0.0 0.0 0.0 0.0 0.0 0.0 0.0 0.0 0.0 0.0 0.0 0.0 0.0 0.0 0.0 0.0 0.0 0.0 0.0 0.0 0.0 0.0 0.0 0.0 0.0 0.0 0.0 0.0 0.0 0.0 0.0 0.0 0.0 0.0 0.0 0.0 0.0 0.0 0.0 0.0 0.0 0.0 0.0 0.0 0.0 0.0 0.0 0.0 0.0 0.0 0.0 0.0 0.0 0.0 0.0 0.0 0.0 0.0 0.0 0.0 0.0 0.0 0.0 0.0 0.0 0.0 0.0 0.0 0.0 0.0 0.0 0.0 0.0 0.0 0.0 0.0 0.0 0.0 0.0 0.0 0.0 0.0 0.0 0.0 0.0 0.0 0.0 0.0 0.0 0.0 0.0 0.0 0.0 0.0 0.0 0.0 0.0 0.0 0.0 0.0 0.0 0.0 0.0 0.0 0.0 0.0 0.0 0.0 0.0 0.0 0.0 0.0 0.0 0.0 0.0 0.0 0.0 0.0 0.0 0.0 0.0 0.0 0.0 0.0 0.0 0.0 0.0 0.0 0.0 0.0 0.0 0.0 0.0 0.0 0.0 0.0 0.0 0.0 0.0 0.0 0.0 0.0 0.0 0.0 0.0 0.0 0.0 0.0 0.0 0.0 0.0 0.0 0.0 0.0 0.0 0.0 0.0 0.0 0.0 0.0 0.0 0.0 0.0 0.0 0.0 0.0 0.0 0.0 0.0 0.0 0.0 0.0 0.0 0.0 0.0 0.0 0.0 0.0 0.0 0.0 0.0 0.0 0.0 0.0 0.0 0.0 0.0 0.0 0.0 0.0 0.0 0.0 0.0 0.0 0.0 0.0 0.0 0.0 0.0 0.0 0.0 0.0 0.0 0.0 0.0 0.0 0.0 0.0 0.0 0.0 0.0 0.0 0.0 0.0 0.0 0.0 0.0 0.0 0.0 0.0 0.0 0.0 0.0 0.0 0.0 0.0 0.0 0.0 0.0 0.0 0.0 0.0 0.0 0.0 0.0 0.0 0.0 0.0 0.0 0.0 0.0 0.0 0.0 0.0 0.0 0.0 0.0 0.0 0.0 0.0 0.0 0.0 0.0 0.0 0.0 0.0 0.0 0.0 0.0 0.0 0.0 0.0 0.0 0.0 0.0 0.0 0.0 0.0 0.0 0.0 0.0 0.0 0.0 0.0 0.0 0.0 0.0 0.0 0.0 0.0 0.0 0.0 0.0 0.0 0.0 0.0 0.0 0.0 0.0 0.0 0.0 0.0 0.0 0.0 0.0 0.0 0.0 0.0 0.0 0.0 0.0 0.0 0.0 0.0 0.0 0.0 0.0 0.0 0.0 0.0 0.0 0.0 0.0 0.0 0.0 0.0 0.0 0.0 0.0 0.0 0.0 0.0 0.0 0.0 0.0 0.0 0.0 0.0 0.0 0.0 0.0 0.0 0.0 0.0 0.0 0.0 0.0 0.0 0.0 0.0 0.0 0.0 0.0 0.0 0.0 0.0 0.0 0.0 0.0 0.0 0.0 0.0 0.0 0.0 0.0 0.0 0.0 0.0 0.0 0.0 0.0 0.0 0.0 0.0 0.0 0.0 0.0 0.0 0.0 0.0 0.0 0.0 0.0 0.0 0.0 0.0 0.0 0.0 0.0 0.0 0.0 0.0 0.0 0.0 0.0 0.0 0.0 0.0 0.0 0.0 0.0 0.0 
         </DataArray>
    </CellData>
    <Polys>
        <DataArray type="Int32" Name="connectivity" format="ascii">