<?xml version="1.0"?>
<VTKFile type="RectilinearGrid" version="1.0" byte_order="LittleEndian" header_type="UInt64">
<RectilinearGrid WholeExtent="25 50 0 25 0 15">
<Piece Extent="25 50 0 25 0 15">
<Coordinates>
<DataArray type="Float64" Name="Array X-Axis" format="ascii" RangeMin="15.0" RangeMax="30.0">
15.0 15.6 16.2 16.8 17.4 18.0 18.6 19.2 19.8 20.4 21.0 21.6 22.2 22.8 23.4 24.0 24.6 25.2 25.8 26.4 27.0 27.6 28.2 28.8 29.4 30.0 
</DataArray>
<DataArray type="Float64" Name="Array Y-Axis" format="ascii" RangeMin="0.0" RangeMax="15.0">
0.0 0.6 1.2 1.8 2.4 3.0 3.6 4.2 4.8 5.4 6.0 6.6 7.2 7.8 8.4 9.0 9.6 10.2 10.8 11.4 12.0 12.6 13.2 13.8 14.4 15.0 
</DataArray>
<DataArray type="Float64" Name="Array Z-Axis" format="ascii" RangeMin="0.0" RangeMax="9.0">
0.0 0.6 1.2 1.8 2.4 3.0 3.6 4.2 4.8 5.4 6.0 6.6 7.2 7.8 8.4 9.0 
</DataArray>
</Coordinates>
<PointData>
<DataArray Name="TEMPERATURE" NumberOfComponents="1" type="Float64" format="ascii">
20.0 20.0 20.0 20.0 20.0 20.0 20.0 20.0 20.0 20.0 20.0 20.0 20.0 20.0 20.0 20.0 20.0 20.0 20.0 20.0 20.0 20.0 20.0 20.1 20.1 20.1 20.1 20.1 20.1 20.1 20.1 20.1 20.1 20.1 20.1 20.1 20.1 20.1 20.1 20.1 20.1 20.1 20.1 20.1 20.1 20.1 20.1 20.1 20.1 20.1 20.1 20.1 20.1 20.1 20.2 20.2 20.2 20.2 20.2 20.2 20.2 20.2 20.2 20.2 20.1 20.1 20.1 20.1 20.1 20.1 20.2 20.2 20.2 20.2 20.2 20.2 20.1 20.1 20.2 20.2 20.2 20.3 20.3 20.3 20.2 20.3 20.3 20.3 20.3 20.2 20.2 20.2 20.2 20.2 20.2 20.3 20.3 20.3 20.3 20.3 20.3 20.2 20.1 20.1 20.3 20.3 20.3 20.3 20.3 20.3 20.3 20.4 20.4 20.4 20.4 20.3 20.3 20.3 20.3 20.4 20.4 20.4 20.4 20.4 20.4 20.4 20.3 20.2 20.1 20.0 20.4 20.4 20.4 20.4 20.4 20.4 20.4 20.5 20.5 20.5 20.5 20.5 20.5 20.5 20.5 20.5 20.5 20.5 20.5 20.5 20.5 20.4 20.3 20.2 20.1 20.0 20.5 20.5 20.5 20.6 20.6 20.6 20.6 20.6 20.7 20.7 20.7 20.6 20.6 20.6 20.6 20.6 20.6 20.6 20.6 20.6 20.5 20.4 20.3 20.2 20.1 20.0 20.6 20.7 20.7 20.8 20.8 20.8 20.8 20.8 20.9 20.9 20.8 20.8 20.8 20.8 20.8 20.8 20.7 20.7 20.7 20.6 20.5 20.4 20.3 20.2 20.1 20.0 20.8 20.8 20.9 21.0 21.0 21.0 21.0 21.1 21.1 21.1 21.0 21.0 21.0 21.0 20.9 20.9 20.8 20.8 20.7 20.6 20.5 20.4 20.3 20.2 20.1 20.0 21.0 21.0 21.1 21.2 21.2 21.2 21.3 21.3 21.4 21.3 21.2 21.2 21.1 21.1 21.1 21.0 20.9 20.9 20.8 20.7 20.6 20.4 20.3 20.2 20.1 20.0 21.1 21.2 21.3 21.5 21.5 21.5 21.6 21.7 21.7 21.6 21.4 21.4 21.3 21.3 21.2 21.1 21.0 20.9 20.8 20.7 20.6 20.4 20.3 20.2 20.1 20.0 21.3 21.4 21.5 21.7 21.8 21.9 21.9 22.0 22.0 21.8 21.7 21.6 21.5 21.4 21.3 21.2 21.1 21.0 20.9 20.7 20.6 20.4 20.3 20.2 20.1 20.0 21.5 21.6 21.8 21.9 22.1 22.3 22.3 22.3 22.2 22.0 21.9 21.8 21.7 21.6 21.4 21.3 21.2 21.1 20.9 20.7 20.6 20.4 20.3 20.2 20.1 20.0 21.7 21.8 22.0 22.2 22.5 22.6 22.8 22.8 22.7 22.4 22.2 22.0 21.9 21.7 21.6 21.5 21.3 21.1 20.9 20.7 20.5 20.4 20.3 20.2 20.1 20.0 21.9 22.1 22.3 22.6 22.9 23.2 23.3 23.3 23.1 22.7 22.5 22.3 22.1 21.9 21.8 21.6 21.4 21.2 20.9 20.7 20.5 20.4 20.3 20.2 20.1 20.0 22.2 22.4 22.7 23.0 23.6 24.1 24.0 23.8 23.6 23.2 22.9 22.6 22.4 22.1 21.9 21.7 21.4 21.2 20.9 20.7 20.5 20.4 20.3 20.2 20.1 20.0 22.5 22.8 23.1 23.5 24.1 24.7 24.8 24.6 24.2 23.7 23.3 22.9 22.6 22.3 22.1 21.8 21.5 21.2 20.9 20.7 20.6 20.4 20.3 20.2 20.1 20.0 22.8 23.2 23.6 24.1 24.8 25.5 26.0 25.7 25.1 24.3 23.7 23.3 22.9 22.5 22.2 21.8 21.5 21.2 21.0 20.8 20.6 20.5 20.4 20.2 20.1 20.1 23.2 23.7 24.3 25.0 26.4 27.8 28.0 27.2 26.2 25.0 24.2 23.7 23.2 22.7 22.3 22.0 21.6 21.3 21.1 20.9 20.7 20.5 20.4 20.3 20.1 20.1 24.0 24.5 26.1 29.9 37.0 38.6 33.0 29.9 28.0 26.0 24.9 24.3 23.6 23.1 22.6 22.1 21.7 21.4 21.1 20.9 20.7 20.6 20.4 20.3 20.1 20.1 25.0 25.6 27.9 34.9 44.8 47.7 36.6 33.8 31.7 27.5 26.0 25.1 24.2 23.4 22.7 22.2 21.8 21.4 21.1 20.9 20.8 20.6 20.4 20.3 20.1 20.1 25.7 26.8 28.3 34.9 40.4 20.0 20.0 47.2 42.3 32.5 26.9 25.7 24.5 23.5 22.8 22.3 21.8 21.4 21.1 20.9 20.7 20.5 20.4 20.3 20.1 20.1 25.5 26.7 27.8 32.9 37.1 20.0 20.0 46.7 43.4 33.9 26.8 25.3 24.3 23.5 22.8 22.2 21.7 21.4 21.1 20.9 20.7 20.6 20.4 20.2 20.1 20.1 24.7 25.5 27.0 30.8 33.4 33.7 32.3 32.7 32.4 28.9 25.7 24.6 23.9 23.2 22.7 22.1 21.7 21.4 21.1 20.9 20.7 20.6 20.4 20.3 20.1 20.1 23.9 24.5 26.0 28.3 30.2 31.1 30.3 28.8 27.3 25.7 24.7 23.9 23.4 22.9 22.5 22.0 21.6 21.4 21.1 20.9 20.7 20.6 20.4 20.3 20.1 20.1 22.5 23.7 24.7 25.8 26.8 27.6 27.5 26.9 25.7 24.7 24.0 23.5 23.0 22.6 22.2 21.9 21.5 21.3 21.0 20.8 20.7 20.5 20.4 20.3 20.1 20.1 20.0 20.0 20.0 20.0 20.0 20.0 20.0 20.0 20.0 20.0 20.0 20.0 20.0 20.0 20.0 20.0 20.0 20.0 20.0 20.0 20.0 20.0 20.0 20.1 20.1 20.1 20.1 20.1 20.1 20.1 20.1 20.1 20.1 20.1 20.1 20.1 20.1 20.1 20.1 20.1 20.1 20.1 20.1 20.1 20.1 20.1 20.1 20.1 20.1 20.1 20.1 20.1 20.1 20.1 20.1 20.2 20.2 20.2 20.1 20.2 20.2 20.2 20.2 20.1 20.1 20.1 20.1 20.1 20.1 20.1 20.1 20.2 20.2 20.2 20.2 20.2 20.1 20.1 20.2 20.2 20.2 20.2 20.2 20.2 20.2 20.2 20.3 20.3 20.2 20.2 20.2 20.2 20.2 20.2 20.2 20.2 20.3 20.3 20.3 20.3 20.3 20.2 20.1 20.0 20.2 20.3 20.3 20.3 20.3 20.3 20.3 20.3 20.4 20.4 20.3 20.3 20.3 20.3 20.3 20.3 20.4 20.4 20.4 20.4 20.4 20.3 20.3 20.2 20.1 20.0 20.3 20.4 20.4 20.4 20.4 20.4 20.4 20.4 20.5 20.5 20.5 20.4 20.4 20.4 20.5 20.5 20.5 20.5 20.5 20.5 20.4 20.4 20.3 20.2 20.1 20.0 20.5 20.5 20.5 20.6 20.6 20.6 20.6 20.6 20.7 20.7 20.6 20.6 20.6 20.6 20.6 20.6 20.6 20.6 20.5 20.5 20.5 20.4 20.3 20.2 20.1 20.0 20.6 20.7 20.7 20.7 20.8 20.8 20.8 20.8 20.9 20.9 20.8 20.8 20.8 20.8 20.8 20.7 20.7 20.7 20.6 20.6 20.5 20.4 20.3 20.2 20.1 20.0 20.8 20.8 20.9 21.0 21.0 21.0 21.0 21.1 21.1 21.1 21.0 21.0 20.9 20.9 20.9 20.8 20.8 20.7 20.7 20.6 20.5 20.4 20.3 20.2 20.1 20.0 20.9 21.0 21.1 21.2 21.3 21.3 21.3 21.4 21.4 21.3 21.2 21.2 21.1 21.1 21.0 20.9 20.9 20.8 20.7 20.6 20.5 20.4 20.3 20.2 20.1 20.0 21.1 21.2 21.3 21.5 21.5 21.6 21.6 21.7 21.7 21.6 21.4 21.3 21.3 21.2 21.1 21.0 21.0 20.9 20.8 20.7 20.5 20.4 20.3 20.2 20.1 20.0 21.3 21.4 21.5 21.7 21.8 21.9 22.0 22.0 22.0 21.8 21.6 21.6 21.5 21.4 21.3 21.2 21.1 21.0 20.8 20.7 20.5 20.4 20.3 20.2 20.1 20.0 21.5 21.6 21.8 22.0 22.2 22.3 22.4 22.4 22.3 22.1 21.9 21.8 21.7 21.5 21.4 21.3 21.2 21.1 20.9 20.7 20.5 20.4 20.3 20.2 20.1 20.0 21.7 21.9 22.1 22.3 22.6 22.8 22.9 22.9 22.7 22.4 22.2 22.0 21.9 21.7 21.6 21.4 21.3 21.1 20.9 20.7 20.5 20.4 20.3 20.2 20.1 20.0 21.9 22.1 22.4 22.7 23.1 23.4 23.5 23.4 23.1 22.8 22.5 22.3 22.1 21.9 21.8 21.6 21.4 21.2 20.9 20.7 20.5 20.4 20.3 20.2 20.1 20.0 22.2 22.5 22.8 23.2 23.7 24.2 24.2 23.9 23.7 23.3 22.9 22.7 22.4 22.2 21.9 21.7 21.4 21.2 20.9 20.7 20.5 20.4 20.3 20.2 20.1 20.0 22.6 22.9 23.3 23.8 24.4 25.0 25.2 24.9 24.4 23.8 23.4 23.0 22.7 22.4 22.1 21.8 21.5 21.2 20.9 20.7 20.5 20.4 20.3 20.2 20.1 20.0 22.9 23.4 23.9 24.5 25.3 26.1 26.6 26.1 25.3 24.5 23.9 23.4 23.0 22.6 22.2 21.9 21.6 21.3 21.0 20.8 20.6 20.5 20.3 20.2 20.1 20.0 23.4 23.9 24.6 26.1 27.8 29.1 29.2 27.9 26.4 25.2 24.4 23.8 23.3 22.8 22.4 22.0 21.7 21.4 21.1 20.8 20.7 20.5 20.4 20.3 20.1 20.1 24.1 24.8 26.6 32.3 39.3 41.1 36.9 31.7 28.4 26.3 25.2 24.5 23.8 23.2 22.7 22.2 21.8 21.4 21.1 20.9 20.7 20.6 20.4 20.3 20.1 20.1 25.1 26.1 28.5 38.5 58.7 99.6 127.3 78.1 35.6 29.5 26.3 25.4 24.4 23.6 22.9 22.3 21.9 21.5 21.2 20.9 20.7 20.6 20.4 20.3 20.1 20.1 26.2 27.5 29.5 39.7 105.4 310.7 403.8 199.3 78.3 44.5 27.7 26.1 24.8 23.7 23.0 22.4 21.9 21.5 21.1 20.9 20.7 20.5 20.4 20.2 20.1 20.1 26.0 27.3 29.8 38.5 120.9 372.0 414.5 183.1 78.1 44.5 27.6 25.8 24.6 23.7 23.0 22.4 21.8 21.5 21.1 20.9 20.7 20.5 20.4 20.2 20.1 20.1 24.8 26.0 30.5 37.8 67.2 135.0 134.0 66.1 36.3 29.3 26.1 24.9 24.1 23.4 22.8 22.2 21.8 21.4 21.1 20.9 20.7 20.6 20.4 20.3 20.1 20.1 24.0 25.0 28.5 33.9 36.0 36.5 36.0 33.5 29.5 26.0 24.9 24.1 23.5 23.0 22.5 22.1 21.7 21.4 21.1 20.9 20.7 20.6 20.4 20.3 20.1 20.1 22.7 24.0 25.1 27.5 28.9 28.8 28.7 28.0 26.5 25.0 24.3 23.6 23.1 22.7 22.3 21.9 21.6 21.3 21.0 20.8 20.6 20.5 20.4 20.3 20.1 20.1 20.0 20.0 20.0 20.0 20.0 20.0 20.0 20.0 20.0 20.0 20.0 20.0 20.0 20.0 20.0 20.0 20.0 20.0 20.0 20.0 20.0 20.0 20.0 20.1 20.1 20.1 20.0 20.1 20.1 20.1 20.1 20.1 20.1 20.1 20.1 20.1 20.1 20.1 20.1 20.1 20.1 20.1 20.1 20.1 20.1 20.1 20.1 20.1 20.1 20.1 20.1 20.1 20.1 20.1 20.1 20.1 20.1 20.1 20.1 20.1 20.2 20.2 20.1 20.1 20.1 20.1 20.1 20.1 20.1 20.1 20.1 20.1 20.1 20.2 20.2 20.2 20.1 20.1 20.2 20.2 20.2 20.2 20.2 20.2 20.2 20.2 20.2 20.2 20.2 20.2 20.2 20.2 20.2 20.2 20.2 20.2 20.2 20.2 20.2 20.2 20.2 20.2 20.1 20.0 20.2 20.2 20.3 20.3 20.3 20.3 20.3 20.3 20.3 20.3 20.3 20.3 20.3 20.3 20.3 20.3 20.3 20.3 20.3 20.3 20.3 20.3 20.2 20.2 20.1 20.0 20.3 20.3 20.4 20.4 20.4 20.4 20.4 20.4 20.5 20.5 20.5 20.4 20.4 20.4 20.4 20.4 20.4 20.4 20.4 20.4 20.4 20.3 20.2 20.2 20.1 20.0 20.4 20.5 20.5 20.5 20.6 20.6 20.6 20.6 20.7 20.7 20.6 20.6 20.6 20.6 20.6 20.5 20.5 20.5 20.5 20.4 20.4 20.3 20.2 20.1 20.1 20.0 20.6 20.6 20.7 20.7 20.8 20.8 20.8 20.8 20.9 20.9 20.8 20.8 20.7 20.7 20.7 20.7 20.6 20.6 20.5 20.5 20.4 20.3 20.2 20.1 20.1 20.0 20.7 20.8 20.9 21.0 21.0 21.0 21.1 21.1 21.1 21.1 21.0 20.9 20.9 20.8 20.8 20.8 20.7 20.6 20.6 20.5 20.4 20.3 20.2 20.1 20.1 20.0 20.9 21.0 21.1 21.2 21.3 21.3 21.4 21.4 21.4 21.3 21.2 21.1 21.0 21.0 20.9 20.8 20.8 20.7 20.6 20.6 20.5 20.3 20.2 20.1 20.1 20.0 21.1 21.2 21.3 21.5 21.6 21.6 21.7 21.8 21.7 21.6 21.4 21.3 21.2 21.1 21.0 21.0 20.9 20.8 20.7 20.6 20.5 20.4 20.2 20.1 20.1 20.0 21.2 21.4 21.6 21.8 21.9 22.0 22.1 22.1 22.0 21.8 21.6 21.5 21.4 21.3 21.2 21.1 21.0 20.9 20.8 20.6 20.5 20.4 20.2 20.1 20.1 20.0 21.5 21.6 21.8 22.1 22.3 22.5 22.6 22.6 22.4 22.1 21.9 21.8 21.7 21.5 21.4 21.2 21.1 21.0 20.8 20.7 20.5 20.4 20.2 20.1 20.1 20.0 21.7 21.9 22.2 22.5 22.8 23.0 23.1 23.1 22.8 22.5 22.3 22.1 21.9 21.7 21.5 21.4 21.2 21.1 20.9 20.7 20.5 20.4 20.2 20.1 20.1 20.0 22.0 22.2 22.6 23.0 23.4 23.7 23.8 23.7 23.3 22.9 22.7 22.4 22.2 22.0 21.7 21.5 21.3 21.1 20.9 20.7 20.5 20.4 20.2 20.2 20.1 20.0 22.3 22.7 23.1 23.6 24.1 24.5 24.6 24.4 24.0 23.5 23.1 22.8 22.5 22.2 21.9 21.7 21.4 21.2 20.9 20.7 20.5 20.4 20.2 20.2 20.1 20.0 22.7 23.1 23.6 24.4 25.1 25.7 26.0 25.5 24.7 24.1 23.7 23.2 22.8 22.5 22.1 21.8 21.5 21.2 21.0 20.7 20.5 20.4 20.3 20.2 20.1 20.0 23.2 23.8 24.4 26.1 27.5 28.2 29.0 28.0 26.0 24.9 24.2 23.7 23.2 22.7 22.3 22.0 21.6 21.3 21.0 20.8 20.6 20.4 20.3 20.2 20.1 20.0 23.7 24.7 26.3 32.8 38.1 36.4 35.9 33.5 28.1 25.8 24.9 24.2 23.6 23.0 22.6 22.1 21.8 21.4 21.1 20.8 20.6 20.5 20.4 20.2 20.1 20.1 24.8 27.1 30.2 44.4 60.1 61.6 53.5 43.5 33.9 27.3 25.8 24.9 24.1 23.4 22.9 22.4 21.9 21.5 21.2 20.9 20.7 20.5 20.4 20.2 20.1 20.1 26.0 29.3 34.7 58.2 105.4 160.0 175.1 115.5 52.7 32.3 27.2 25.8 24.8 23.9 23.2 22.6 22.1 21.6 21.2 20.9 20.7 20.5 20.4 20.2 20.1 20.1 27.1 30.0 38.5 85.8 202.1 341.3 392.2 291.3 145.0 59.1 29.4 26.7 25.3 24.2 23.4 22.7 22.1 21.6 21.2 20.9 20.7 20.5 20.4 20.2 20.1 20.0 26.9 29.3 39.3 90.2 219.8 368.6 403.3 304.2 165.9 65.8 29.7 26.6 25.2 24.1 23.4 22.7 22.1 21.6 21.2 20.9 20.7 20.5 20.4 20.2 20.1 20.0 25.5 28.2 39.8 69.4 119.9 179.1 192.3 139.7 76.6 39.5 27.3 25.6 24.5 23.7 23.1 22.5 22.0 21.5 21.2 20.9 20.7 20.5 20.4 20.2 20.1 20.1 24.5 26.5 34.0 50.7 54.0 49.7 56.5 52.1 36.5 27.6 25.6 24.6 23.9 23.2 22.7 22.2 21.8 21.4 21.1 20.9 20.7 20.5 20.4 20.2 20.1 20.1 23.0 24.5 25.8 31.8 34.2 31.9 31.5 29.7 27.4 25.6 24.8 24.1 23.4 22.9 22.4 22.0 21.6 21.3 21.0 20.8 20.6 20.5 20.3 20.2 20.1 20.1 20.0 20.0 20.0 20.0 20.0 20.0 20.0 20.0 20.0 20.0 20.0 20.0 20.0 20.0 20.0 20.0 20.0 20.0 20.0 20.0 20.0 20.0 20.0 20.1 20.1 20.1 20.0 20.1 20.1 20.1 20.1 20.1 20.1 20.1 20.1 20.1 20.1 20.1 20.1 20.1 20.0 20.0 20.0 20.1 20.1 20.1 20.1 20.1 20.1 20.1 20.1 20.1 20.1 20.1 20.1 20.1 20.1 20.1 20.1 20.1 20.2 20.1 20.1 20.1 20.1 20.1 20.1 20.1 20.1 20.1 20.1 20.1 20.1 20.1 20.1 20.1 20.1 20.1 20.2 20.2 20.2 20.2 20.2 20.2 20.2 20.2 20.2 20.2 20.2 20.2 20.2 20.2 20.2 20.2 20.2 20.2 20.2 20.2 20.2 20.2 20.2 20.2 20.1 20.0 20.2 20.2 20.3 20.3 20.3 20.3 20.3 20.3 20.3 20.3 20.3 20.3 20.3 20.3 20.3 20.3 20.3 20.3 20.3 20.3 20.3 20.3 20.2 20.1 20.1 20.0 20.3 20.4 20.4 20.4 20.4 20.4 20.4 20.5 20.5 20.5 20.5 20.4 20.4 20.4 20.4 20.4 20.4 20.4 20.4 20.3 20.3 20.3 20.2 20.1 20.1 20.0 20.5 20.5 20.5 20.6 20.6 20.6 20.6 20.7 20.7 20.7 20.6 20.6 20.6 20.6 20.5 20.5 20.5 20.5 20.4 20.4 20.3 20.3 20.2 20.1 20.1 20.0 20.6 20.6 20.7 20.8 20.8 20.8 20.9 20.9 20.9 20.9 20.8 20.8 20.7 20.7 20.7 20.6 20.6 20.5 20.5 20.4 20.4 20.3 20.2 20.1 20.1 20.0 20.7 20.8 20.9 21.0 21.1 21.1 21.1 21.2 21.2 21.1 21.0 20.9 20.9 20.8 20.8 20.7 20.7 20.6 20.5 20.5 20.4 20.3 20.2 20.1 20.1 20.0 20.9 21.0 21.1 21.3 21.3 21.4 21.4 21.5 21.5 21.3 21.2 21.1 21.0 21.0 20.9 20.8 20.7 20.7 20.6 20.5 20.4 20.3 20.2 20.1 20.1 20.0 21.1 21.2 21.3 21.5 21.6 21.7 21.8 21.8 21.8 21.6 21.4 21.3 21.2 21.1 21.0 20.9 20.8 20.8 20.7 20.6 20.5 20.3 20.2 20.1 20.1 20.0 21.3 21.4 21.6 21.8 22.0 22.1 22.2 22.2 22.1 21.9 21.7 21.6 21.4 21.3 21.2 21.1 21.0 20.9 20.7 20.6 20.5 20.4 20.2 20.1 20.1 20.0 21.5 21.7 21.9 22.2 22.4 22.6 22.7 22.7 22.5 22.2 22.0 21.8 21.7 21.5 21.4 21.2 21.1 21.0 20.8 20.7 20.5 20.4 20.2 20.1 20.1 20.0 21.7 22.0 22.2 22.6 22.9 23.1 23.3 23.2 22.9 22.6 22.4 22.2 22.0 21.8 21.6 21.4 21.2 21.0 20.9 20.7 20.5 20.4 20.2 20.1 20.1 20.0 22.0 22.3 22.7 23.1 23.6 23.8 24.0 23.9 23.5 23.1 22.8 22.5 22.3 22.0 21.8 21.5 21.3 21.1 20.9 20.7 20.5 20.4 20.2 20.2 20.1 20.0 22.4 22.8 23.3 23.9 24.4 24.8 24.9 24.8 24.3 23.7 23.3 23.0 22.6 22.3 22.0 21.7 21.5 21.2 21.0 20.7 20.5 20.4 20.3 20.2 20.1 20.0 22.8 23.4 24.4 25.4 26.1 26.9 26.9 26.1 25.2 24.4 23.9 23.4 23.0 22.6 22.2 21.9 21.6 21.3 21.0 20.8 20.6 20.4 20.3 20.2 20.1 20.0 23.4 24.1 25.9 28.2 29.7 31.0 31.8 29.8 26.9 25.4 24.6 24.0 23.4 22.9 22.4 22.0 21.7 21.4 21.1 20.8 20.6 20.4 20.3 20.2 20.1 20.0 24.3 25.5 29.0 38.8 46.0 43.9 43.1 38.6 29.9 26.6 25.5 24.6 23.9 23.2 22.7 22.3 21.9 21.5 21.2 20.9 20.7 20.5 20.4 20.2 20.1 20.1 26.0 30.8 45.3 75.6 89.8 78.2 67.8 57.5 40.4 28.4 26.6 25.3 24.5 23.7 23.1 22.5 22.1 21.7 21.3 21.0 20.7 20.5 20.4 20.2 20.1 20.1 28.3 38.2 73.4 133.3 172.5 179.5 163.5 124.4 69.0 33.1 28.2 26.3 25.2 24.3 23.5 22.8 22.3 21.8 21.3 21.0 20.7 20.5 20.4 20.2 20.1 20.1 31.6 50.9 106.7 208.6 302.8 348.0 346.3 291.6 162.5 53.8 30.6 27.4 25.9 24.7 23.8 23.0 22.4 21.8 21.4 21.0 20.7 20.5 20.4 20.2 20.1 20.0 31.2 47.3 97.1 200.7 304.1 357.1 374.4 338.7 205.1 72.1 31.9 27.5 25.9 24.6 23.8 23.0 22.3 21.8 21.3 21.0 20.7 20.5 20.4 20.2 20.1 20.0 27.1 31.9 56.4 112.6 160.8 181.8 201.2 181.0 112.4 53.6 29.5 26.3 25.0 24.0 23.3 22.7 22.2 21.7 21.3 21.0 20.7 20.5 20.4 20.2 20.1 20.1 24.9 27.5 36.2 59.8 70.7 65.2 71.0 61.0 39.6 30.4 26.4 25.1 24.2 23.5 22.9 22.4 21.9 21.6 21.2 20.9 20.7 20.5 20.4 20.2 20.1 20.1 23.2 24.9 26.6 34.1 38.3 36.0 34.1 30.5 27.7 26.3 25.3 24.4 23.7 23.1 22.6 22.1 21.8 21.4 21.1 20.9 20.6 20.5 20.3 20.2 20.1 20.1 20.0 20.0 20.0 20.0 20.0 20.0 20.0 20.0 20.0 20.0 20.0 20.0 20.0 20.0 20.0 20.0 20.0 20.0 20.0 20.0 20.0 20.0 20.0 20.1 20.1 20.1 20.1 20.1 20.1 20.1 20.1 20.1 20.1 20.1 20.1 20.1 20.1 20.1 20.1 20.1 20.1 20.1 20.1 20.1 20.1 20.1 20.1 20.1 20.1 20.1 20.1 20.1 20.1 20.1 20.1 20.2 20.1 20.1 20.1 20.2 20.2 20.2 20.2 20.1 20.1 20.1 20.1 20.1 20.1 20.1 20.1 20.1 20.2 20.2 20.2 20.2 20.1 20.1 20.2 20.2 20.2 20.2 20.2 20.2 20.2 20.2 20.3 20.3 20.2 20.2 20.2 20.2 20.2 20.2 20.2 20.2 20.2 20.2 20.2 20.2 20.2 20.2 20.1 20.0 20.3 20.3 20.3 20.3 20.3 20.3 20.3 20.4 20.4 20.4 20.4 20.3 20.3 20.3 20.3 20.4 20.3 20.3 20.3 20.3 20.3 20.3 20.2 20.2 20.1 20.0 20.4 20.4 20.5 20.5 20.5 20.5 20.5 20.5 20.6 20.6 20.5 20.5 20.5 20.5 20.5 20.5 20.5 20.4 20.4 20.4 20.3 20.3 20.2 20.2 20.1 20.0 20.5 20.6 20.6 20.7 20.7 20.7 20.7 20.8 20.8 20.8 20.7 20.7 20.6 20.6 20.6 20.6 20.6 20.5 20.5 20.4 20.4 20.3 20.2 20.2 20.1 20.0 20.7 20.7 20.8 20.9 20.9 20.9 21.0 21.0 21.0 21.0 20.9 20.8 20.8 20.8 20.7 20.7 20.6 20.6 20.5 20.5 20.4 20.3 20.3 20.2 20.1 20.0 20.8 20.9 21.0 21.1 21.2 21.2 21.2 21.3 21.3 21.2 21.1 21.0 21.0 20.9 20.9 20.8 20.7 20.7 20.6 20.5 20.5 20.4 20.3 20.2 20.1 20.0 21.0 21.1 21.2 21.3 21.4 21.5 21.5 21.6 21.6 21.4 21.3 21.2 21.1 21.1 21.0 20.9 20.8 20.7 20.7 20.6 20.5 20.4 20.3 20.2 20.1 20.0 21.1 21.3 21.4 21.6 21.7 21.8 21.9 21.9 21.9 21.7 21.5 21.4 21.3 21.2 21.1 21.0 20.9 20.8 20.7 20.6 20.5 20.4 20.3 20.2 20.1 20.0 21.3 21.5 21.7 21.9 22.0 22.1 22.3 22.3 22.2 22.0 21.8 21.7 21.6 21.4 21.3 21.2 21.0 20.9 20.8 20.7 20.6 20.4 20.3 20.2 20.1 20.0 21.5 21.7 22.0 22.2 22.4 22.5 22.7 22.8 22.6 22.3 22.1 22.0 21.8 21.6 21.5 21.3 21.2 21.0 20.9 20.7 20.6 20.4 20.3 20.2 20.1 20.0 21.8 22.0 22.3 22.6 22.9 23.1 23.3 23.3 23.1 22.8 22.5 22.3 22.1 21.9 21.7 21.5 21.3 21.1 21.0 20.8 20.6 20.4 20.3 20.2 20.1 20.0 22.1 22.4 22.8 23.1 23.4 23.7 24.1 24.0 23.7 23.3 23.0 22.7 22.4 22.2 21.9 21.7 21.5 21.2 21.0 20.8 20.6 20.4 20.3 20.2 20.1 20.0 22.5 23.3 23.8 24.0 24.2 24.6 24.9 24.9 24.5 23.9 23.5 23.1 22.8 22.4 22.1 21.8 21.6 21.3 21.1 20.9 20.6 20.4 20.3 20.2 20.1 20.0 23.6 24.4 25.7 26.0 26.3 27.3 27.1 26.2 25.4 24.6 24.1 23.6 23.2 22.7 22.4 22.0 21.7 21.4 21.2 20.9 20.7 20.5 20.3 20.2 20.1 20.0 24.6 25.6 28.1 29.2 28.2 30.0 31.9 29.6 27.0 25.6 24.8 24.2 23.6 23.1 22.6 22.2 21.9 21.5 21.2 21.0 20.7 20.5 20.4 20.2 20.1 20.1 26.3 28.5 33.7 40.4 38.5 37.8 42.6 37.2 29.6 26.8 25.8 24.8 24.1 23.5 22.9 22.5 22.0 21.7 21.4 21.1 20.8 20.6 20.4 20.3 20.1 20.1 33.2 47.9 79.0 107.5 84.9 58.5 64.8 56.5 39.0 28.7 27.0 25.6 24.7 24.0 23.3 22.8 22.3 21.9 21.5 21.1 20.9 20.6 20.4 20.3 20.1 20.1 39.5 80.9 158.8 214.8 163.5 119.5 139.3 118.4 66.4 32.9 29.0 26.7 25.5 24.6 23.7 23.1 22.5 22.0 21.5 21.2 20.9 20.6 20.4 20.3 20.1 20.1 47.2 118.0 230.7 315.5 260.2 228.9 279.9 238.6 125.6 43.8 31.3 27.9 26.3 25.1 24.1 23.3 22.6 22.0 21.6 21.2 20.8 20.6 20.4 20.3 20.1 20.1 43.4 98.8 193.4 283.4 250.9 236.5 292.2 263.9 157.6 58.0 32.7 28.0 26.3 24.9 24.0 23.2 22.6 22.0 21.6 21.2 20.8 20.6 20.4 20.3 20.1 20.1 29.7 45.9 85.1 134.7 137.6 135.8 153.5 140.0 96.2 48.9 30.4 26.7 25.3 24.3 23.6 22.9 22.4 21.9 21.5 21.1 20.9 20.6 20.4 20.3 20.1 20.1 25.6 30.3 38.6 53.6 66.3 66.0 60.3 47.8 35.8 30.4 26.9 25.4 24.5 23.7 23.1 22.6 22.2 21.8 21.4 21.1 20.8 20.6 20.4 20.3 20.1 20.1 23.4 25.8 28.0 32.7 36.7 36.4 33.8 30.5 28.0 26.6 25.6 24.7 24.0 23.4 22.8 22.4 22.0 21.6 21.3 21.0 20.8 20.5 20.4 20.3 20.1 20.1 20.0 20.0 20.0 20.0 20.0 20.0 20.0 20.0 20.0 20.0 20.0 20.0 20.0 20.0 20.0 20.0 20.0 20.0 20.0 20.0 20.0 20.0 20.1 20.1 20.1 20.1 20.1 20.1 20.1 20.1 20.1 20.1 20.1 20.1 20.1 20.1 20.1 20.1 20.1 20.1 20.1 20.1 20.1 20.1 20.1 20.1 20.1 20.1 20.1 20.1 20.1 20.1 20.1 20.1 20.2 20.2 20.2 20.1 20.2 20.2 20.2 20.2 20.2 20.2 20.1 20.1 20.2 20.2 20.2 20.2 20.2 20.2 20.2 20.2 20.2 20.2 20.1 20.1 20.2 20.2 20.2 20.3 20.2 20.2 20.2 20.3 20.3 20.3 20.3 20.3 20.3 20.3 20.3 20.3 20.3 20.3 20.3 20.3 20.3 20.3 20.3 20.2 20.1 20.1 20.3 20.3 20.4 20.4 20.4 20.4 20.4 20.4 20.5 20.5 20.4 20.4 20.4 20.4 20.4 20.4 20.4 20.4 20.4 20.4 20.4 20.3 20.3 20.2 20.1 20.0 20.4 20.5 20.5 20.5 20.5 20.5 20.6 20.6 20.7 20.7 20.6 20.6 20.6 20.6 20.6 20.6 20.5 20.5 20.5 20.4 20.4 20.4 20.3 20.2 20.1 20.0 20.6 20.6 20.7 20.7 20.8 20.8 20.8 20.9 20.9 20.9 20.8 20.8 20.7 20.7 20.7 20.7 20.6 20.6 20.5 20.5 20.5 20.4 20.3 20.2 20.1 20.0 20.7 20.8 20.9 21.0 21.0 21.0 21.1 21.1 21.1 21.1 21.0 20.9 20.9 20.9 20.8 20.8 20.7 20.7 20.6 20.6 20.5 20.4 20.3 20.2 20.1 20.0 20.9 21.0 21.1 21.2 21.2 21.3 21.3 21.4 21.4 21.3 21.2 21.1 21.1 21.0 21.0 20.9 20.8 20.8 20.7 20.6 20.5 20.4 20.3 20.2 20.1 20.0 21.0 21.2 21.3 21.4 21.5 21.5 21.6 21.7 21.7 21.6 21.4 21.3 21.2 21.2 21.1 21.0 20.9 20.9 20.8 20.7 20.6 20.5 20.3 20.2 20.1 20.0 21.2 21.4 21.5 21.7 21.8 21.9 22.0 22.1 22.0 21.8 21.6 21.5 21.4 21.4 21.3 21.2 21.1 21.0 20.9 20.8 20.6 20.5 20.3 20.2 20.1 20.0 21.4 21.5 21.8 21.9 22.0 22.2 22.4 22.4 22.3 22.1 21.9 21.8 21.7 21.6 21.4 21.3 21.2 21.1 20.9 20.8 20.7 20.5 20.3 20.2 20.1 20.0 21.6 21.8 22.0 22.2 22.4 22.6 22.8 22.9 22.7 22.4 22.2 22.1 21.9 21.8 21.6 21.5 21.3 21.2 21.0 20.9 20.7 20.5 20.4 20.2 20.1 20.0 21.8 22.1 22.4 22.6 22.8 23.1 23.4 23.4 23.2 22.8 22.6 22.4 22.2 22.0 21.8 21.6 21.5 21.3 21.1 20.9 20.7 20.5 20.4 20.2 20.1 20.0 22.2 22.5 22.8 23.0 23.2 23.6 24.1 24.1 23.8 23.4 23.0 22.8 22.5 22.3 22.1 21.8 21.6 21.4 21.2 21.0 20.8 20.5 20.3 20.2 20.1 20.0 23.6 24.8 24.6 24.0 23.9 24.2 24.7 24.9 24.5 24.0 23.6 23.2 22.9 22.6 22.3 22.0 21.8 21.5 21.3 21.0 20.8 20.5 20.4 20.2 20.1 20.1 27.6 27.6 27.3 26.1 25.5 26.0 26.2 25.8 25.3 24.7 24.1 23.7 23.3 22.9 22.5 22.2 21.9 21.6 21.3 21.0 20.8 20.6 20.4 20.2 20.1 20.1 31.1 30.3 30.8 28.2 26.1 28.1 29.5 28.1 26.5 25.6 24.9 24.2 23.7 23.2 22.8 22.4 22.0 21.7 21.4 21.1 20.8 20.6 20.4 20.3 20.1 20.1 35.3 36.1 39.1 35.7 29.2 31.5 36.3 33.0 28.9 27.0 25.8 24.9 24.2 23.6 23.1 22.6 22.3 21.9 21.5 21.2 20.9 20.7 20.5 20.3 20.2 20.1 58.0 81.4 109.0 93.3 50.2 41.7 51.1 45.2 35.6 29.6 27.1 25.8 24.8 24.1 23.5 23.0 22.5 22.1 21.7 21.3 21.0 20.7 20.5 20.3 20.2 20.1 80.2 154.8 227.5 185.5 87.3 78.2 109.1 95.6 58.4 34.8 29.6 27.0 25.7 24.8 23.9 23.3 22.7 22.2 21.7 21.4 21.0 20.7 20.5 20.3 20.1 20.1 97.2 212.2 312.6 260.3 135.6 146.9 209.3 178.5 98.8 45.7 32.7 28.2 26.5 25.3 24.3 23.5 22.8 22.3 21.8 21.3 21.0 20.7 20.5 20.3 20.1 20.1 89.4 175.2 256.2 226.6 125.7 132.7 187.0 179.6 116.0 49.5 32.9 28.1 26.4 25.1 24.2 23.4 22.8 22.3 21.8 21.3 21.0 20.7 20.5 20.3 20.1 20.1 53.4 79.4 109.8 107.0 73.3 70.2 83.9 95.1 76.0 38.0 29.5 26.7 25.4 24.5 23.8 23.1 22.6 22.1 21.7 21.3 21.0 20.7 20.5 20.3 20.2 20.1 33.3 38.1 41.0 44.2 48.1 49.2 45.2 42.2 36.0 28.6 26.7 25.5 24.6 23.9 23.3 22.8 22.4 22.0 21.6 21.3 21.0 20.7 20.5 20.3 20.2 20.1 25.1 28.0 29.1 30.8 32.9 33.1 32.1 31.1 28.9 26.5 25.6 24.8 24.1 23.5 23.0 22.6 22.2 21.8 21.5 21.2 20.9 20.6 20.5 20.3 20.1 20.1 20.0 20.0 20.0 20.0 20.0 20.0 20.0 20.0 20.0 20.1 20.0 20.0 20.0 20.0 20.0 20.0 20.0 20.0 20.0 20.0 20.1 20.1 20.1 20.1 20.1 20.1 20.1 20.1 20.1 20.1 20.1 20.1 20.1 20.1 20.1 20.1 20.1 20.1 20.1 20.1 20.1 20.1 20.1 20.1 20.1 20.1 20.1 20.1 20.1 20.2 20.1 20.1 20.1 20.1 20.2 20.2 20.2 20.2 20.2 20.2 20.2 20.2 20.2 20.2 20.2 20.2 20.2 20.2 20.2 20.2 20.2 20.2 20.2 20.3 20.3 20.2 20.2 20.1 20.2 20.2 20.3 20.3 20.3 20.2 20.2 20.3 20.3 20.3 20.3 20.3 20.3 20.3 20.3 20.3 20.4 20.4 20.4 20.4 20.4 20.3 20.3 20.3 20.1 20.1 20.3 20.3 20.4 20.4 20.4 20.4 20.4 20.4 20.5 20.5 20.5 20.5 20.5 20.5 20.5 20.5 20.5 20.5 20.5 20.5 20.4 20.4 20.4 20.3 20.1 20.1 20.5 20.5 20.5 20.6 20.6 20.6 20.6 20.7 20.7 20.7 20.7 20.7 20.6 20.6 20.6 20.6 20.6 20.6 20.6 20.5 20.5 20.4 20.4 20.3 20.1 20.1 20.6 20.7 20.7 20.8 20.8 20.8 20.8 20.9 21.0 21.0 20.9 20.8 20.8 20.8 20.8 20.8 20.7 20.7 20.6 20.6 20.5 20.5 20.4 20.3 20.1 20.1 20.8 20.9 20.9 21.0 21.0 21.0 21.1 21.2 21.2 21.2 21.1 21.0 21.0 21.0 20.9 20.9 20.8 20.8 20.7 20.7 20.6 20.5 20.4 20.2 20.1 20.1 20.9 21.0 21.2 21.2 21.3 21.3 21.4 21.5 21.5 21.4 21.3 21.2 21.1 21.1 21.0 21.0 20.9 20.8 20.8 20.7 20.6 20.5 20.4 20.2 20.1 20.1 21.1 21.2 21.3 21.5 21.5 21.6 21.7 21.8 21.8 21.6 21.5 21.4 21.3 21.2 21.2 21.1 21.0 20.9 20.9 20.8 20.7 20.6 20.4 20.2 20.1 20.1 21.2 21.4 21.5 21.7 21.8 21.9 22.0 22.1 22.0 21.8 21.7 21.6 21.5 21.4 21.3 21.2 21.1 21.0 21.0 20.9 20.7 20.6 20.4 20.2 20.1 20.1 21.4 21.6 21.7 21.9 22.0 22.2 22.4 22.5 22.3 22.1 21.9 21.8 21.7 21.6 21.5 21.4 21.3 21.2 21.1 20.9 20.8 20.6 20.4 20.2 20.1 20.1 21.6 21.8 22.0 22.2 22.4 22.6 22.8 22.9 22.7 22.4 22.2 22.1 22.0 21.8 21.7 21.5 21.4 21.3 21.1 21.0 20.8 20.6 20.4 20.2 20.1 20.1 21.8 22.1 22.3 22.5 22.8 23.1 23.4 23.4 23.1 22.8 22.6 22.4 22.2 22.1 21.9 21.7 21.5 21.4 21.2 21.0 20.8 20.6 20.4 20.2 20.1 20.1 22.2 22.5 22.8 22.9 23.1 23.5 24.0 24.0 23.7 23.3 23.0 22.8 22.5 22.3 22.1 21.9 21.7 21.5 21.3 21.1 20.9 20.6 20.4 20.2 20.1 20.1 24.6 26.2 25.6 24.2 23.7 23.9 24.5 24.7 24.3 23.9 23.5 23.2 22.9 22.6 22.3 22.1 21.8 21.6 21.4 21.1 20.9 20.6 20.4 20.2 20.1 20.1 32.3 33.2 30.1 26.5 25.0 25.0 25.3 25.5 25.1 24.6 24.1 23.7 23.3 22.9 22.5 22.2 22.0 21.7 21.4 21.2 20.9 20.6 20.4 20.3 20.1 20.1 43.1 39.7 32.0 26.4 26.4 27.6 27.5 27.0 26.2 25.4 24.8 24.2 23.6 23.2 22.8 22.4 22.1 21.8 21.6 21.3 21.0 20.7 20.5 20.3 20.1 20.1 58.5 52.1 36.4 27.2 27.8 31.0 31.0 30.1 29.3 27.7 25.7 24.9 24.1 23.6 23.1 22.7 22.4 22.0 21.7 21.4 21.1 20.8 20.5 20.3 20.2 20.1 96.2 117.2 92.7 47.7 32.2 38.2 38.5 38.5 38.4 33.3 27.3 25.7 24.8 24.2 23.6 23.1 22.6 22.2 21.8 21.5 21.1 20.8 20.5 20.3 20.2 20.1 131.3 213.8 186.9 82.0 45.8 62.2 70.0 73.0 59.9 41.3 29.8 26.9 25.7 24.8 24.0 23.4 22.8 22.4 21.9 21.5 21.1 20.8 20.5 20.3 20.2 20.1 161.2 280.9 251.2 117.0 89.3 126.2 138.8 138.2 99.2 54.4 33.3 28.2 26.4 25.3 24.3 23.6 22.9 22.4 21.9 21.5 21.1 20.7 20.5 20.3 20.1 20.1 155.3 237.3 207.2 110.2 99.5 129.2 132.4 139.9 105.6 52.2 32.9 28.1 26.3 25.1 24.3 23.5 22.9 22.4 22.0 21.5 21.1 20.7 20.5 20.3 20.2 20.1 97.1 116.8 94.3 64.3 59.9 65.3 65.2 79.7 66.7 35.2 28.7 26.6 25.4 24.6 24.0 23.3 22.7 22.3 21.9 21.5 21.1 20.8 20.5 20.3 20.2 20.1 52.1 51.2 40.0 38.5 38.5 39.2 41.9 45.6 38.7 28.3 26.3 25.4 24.6 23.9 23.4 22.9 22.5 22.2 21.8 21.4 21.1 20.8 20.5 20.3 20.2 20.1 32.0 34.0 31.0 30.9 31.0 31.7 32.8 32.7 29.6 26.5 25.4 24.7 24.0 23.5 23.0 22.6 22.3 22.0 21.6 21.3 21.0 20.7 20.5 20.3 20.2 20.1 20.0 20.0 20.0 20.0 20.0 20.0 20.0 20.0 20.0 20.1 20.0 20.0 20.0 20.0 20.0 20.0 20.0 20.1 20.1 20.1 20.1 20.1 20.1 20.1 20.1 20.2 20.1 20.1 20.1 20.1 20.1 20.1 20.1 20.1 20.1 20.1 20.1 20.1 20.1 20.1 20.1 20.1 20.1 20.1 20.1 20.1 20.1 20.2 20.2 20.2 20.2 20.1 20.1 20.1 20.2 20.2 20.2 20.2 20.2 20.2 20.2 20.2 20.2 20.2 20.2 20.2 20.2 20.2 20.2 20.3 20.3 20.3 20.3 20.3 20.3 20.3 20.2 20.1 20.2 20.2 20.2 20.3 20.3 20.2 20.2 20.3 20.3 20.3 20.3 20.3 20.3 20.3 20.4 20.4 20.4 20.4 20.4 20.4 20.4 20.4 20.4 20.3 20.2 20.1 20.3 20.4 20.4 20.4 20.4 20.4 20.4 20.4 20.5 20.6 20.5 20.5 20.5 20.5 20.5 20.5 20.6 20.6 20.5 20.5 20.5 20.5 20.4 20.3 20.2 20.1 20.5 20.5 20.5 20.6 20.6 20.6 20.6 20.7 20.8 20.8 20.7 20.7 20.7 20.7 20.7 20.7 20.7 20.7 20.6 20.6 20.5 20.5 20.4 20.3 20.1 20.1 20.6 20.7 20.7 20.8 20.8 20.8 20.8 20.9 21.0 21.0 20.9 20.9 20.8 20.8 20.8 20.8 20.8 20.7 20.7 20.6 20.6 20.5 20.4 20.3 20.1 20.1 20.8 20.9 21.0 21.0 21.0 21.0 21.1 21.2 21.3 21.2 21.1 21.0 21.0 21.0 20.9 20.9 20.8 20.8 20.7 20.7 20.6 20.6 20.5 20.3 20.1 20.1 20.9 21.0 21.1 21.2 21.3 21.3 21.4 21.5 21.5 21.4 21.3 21.2 21.1 21.1 21.0 21.0 20.9 20.9 20.8 20.8 20.7 20.6 20.5 20.3 20.1 20.1 21.1 21.2 21.3 21.4 21.5 21.5 21.7 21.8 21.8 21.6 21.4 21.3 21.3 21.2 21.2 21.1 21.0 21.0 20.9 20.8 20.8 20.6 20.5 20.3 20.1 20.1 21.2 21.3 21.5 21.6 21.7 21.8 22.0 22.1 22.0 21.8 21.6 21.5 21.5 21.4 21.3 21.2 21.1 21.0 21.0 20.9 20.8 20.7 20.5 20.3 20.1 20.1 21.3 21.5 21.7 21.8 22.0 22.1 22.3 22.4 22.3 22.1 21.9 21.8 21.7 21.6 21.5 21.4 21.3 21.2 21.1 21.0 20.8 20.7 20.5 20.3 20.1 20.1 21.5 21.7 21.9 22.1 22.3 22.5 22.7 22.8 22.6 22.4 22.2 22.0 21.9 21.8 21.6 21.5 21.4 21.3 21.2 21.0 20.9 20.7 20.5 20.3 20.1 20.1 21.7 22.0 22.2 22.4 22.7 23.0 23.3 23.3 23.0 22.7 22.5 22.3 22.2 22.0 21.8 21.7 21.5 21.4 21.3 21.1 20.9 20.7 20.5 20.3 20.1 20.1 22.0 22.5 22.7 22.8 23.1 23.4 23.8 23.9 23.5 23.2 22.9 22.7 22.5 22.2 22.0 21.8 21.7 21.5 21.3 21.1 20.9 20.7 20.5 20.3 20.1 20.1 24.1 25.6 25.3 23.9 23.4 23.7 24.2 24.5 24.1 23.7 23.4 23.1 22.8 22.5 22.2 22.0 21.8 21.6 21.4 21.2 20.9 20.7 20.4 20.3 20.1 20.1 32.7 35.4 31.6 26.7 24.7 24.7 25.2 25.4 24.9 24.4 24.0 23.5 23.1 22.8 22.5 22.2 21.9 21.7 21.5 21.2 21.0 20.7 20.5 20.3 20.1 20.1 47.3 46.1 34.7 28.0 27.1 26.5 27.0 27.1 26.2 25.2 24.6 24.1 23.5 23.1 22.7 22.4 22.1 21.9 21.6 21.3 21.0 20.8 20.5 20.3 20.2 20.1 68.7 63.6 37.9 28.1 29.3 28.4 29.5 30.8 30.2 27.4 25.4 24.7 24.1 23.5 23.1 22.7 22.4 22.1 21.8 21.5 21.1 20.8 20.5 20.3 20.2 20.1 107.6 121.7 64.5 31.6 32.9 31.8 35.2 39.5 40.9 34.2 26.9 25.5 24.7 24.1 23.6 23.1 22.7 22.3 22.0 21.6 21.2 20.8 20.6 20.4 20.2 20.1 135.5 192.8 109.9 45.3 45.1 42.0 50.4 61.1 61.3 44.1 29.4 26.7 25.6 24.8 24.0 23.4 22.9 22.4 22.0 21.6 21.2 20.8 20.5 20.3 20.2 20.1 169.8 246.5 149.8 76.1 85.7 84.8 100.1 115.0 100.7 57.9 32.2 28.0 26.4 25.1 24.3 23.6 22.9 22.5 22.0 21.6 21.1 20.8 20.5 20.3 20.2 20.1 179.6 228.4 145.8 96.1 115.5 112.0 115.7 125.2 102.5 53.5 31.6 27.8 26.1 25.0 24.3 23.6 22.9 22.4 22.0 21.6 21.2 20.8 20.5 20.3 20.2 20.1 118.9 126.6 87.4 76.0 87.3 79.3 73.5 78.5 63.5 36.5 28.7 26.5 25.3 24.5 24.0 23.4 22.8 22.4 22.0 21.6 21.2 20.8 20.5 20.3 20.2 20.1 64.8 55.6 43.4 46.5 48.2 45.7 49.0 52.5 43.8 31.5 26.8 25.2 24.5 23.8 23.4 23.0 22.6 22.2 21.9 21.5 21.2 20.8 20.6 20.4 20.2 20.1 42.1 42.7 37.1 35.4 32.7 33.1 36.9 37.5 33.2 28.1 25.3 24.5 23.9 23.3 22.9 22.5 22.2 22.0 21.7 21.4 21.1 20.8 20.5 20.3 20.2 20.1 20.0 20.0 20.0 20.0 20.0 20.0 20.0 20.0 20.0 20.1 20.0 20.0 20.0 20.0 20.0 20.0 20.1 20.1 20.1 20.1 20.1 20.1 20.1 20.1 20.2 20.2 20.1 20.1 20.1 20.1 20.1 20.1 20.1 20.1 20.1 20.1 20.1 20.1 20.1 20.1 20.1 20.1 20.1 20.1 20.1 20.1 20.2 20.2 20.2 20.2 20.2 20.2 20.1 20.1 20.1 20.2 20.2 20.2 20.1 20.2 20.2 20.2 20.2 20.2 20.2 20.2 20.2 20.2 20.3 20.3 20.3 20.3 20.3 20.3 20.3 20.3 20.2 20.1 20.2 20.2 20.2 20.2 20.2 20.2 20.2 20.3 20.3 20.4 20.4 20.3 20.3 20.3 20.4 20.4 20.4 20.4 20.5 20.4 20.4 20.4 20.4 20.3 20.2 20.1 20.3 20.3 20.4 20.4 20.4 20.4 20.4 20.4 20.5 20.6 20.6 20.5 20.5 20.5 20.5 20.6 20.6 20.6 20.6 20.5 20.5 20.5 20.4 20.3 20.2 20.1 20.5 20.5 20.5 20.6 20.6 20.6 20.6 20.7 20.8 20.8 20.8 20.7 20.7 20.7 20.7 20.7 20.7 20.6 20.6 20.6 20.5 20.5 20.5 20.3 20.2 20.1 20.6 20.7 20.7 20.8 20.8 20.8 20.8 20.9 21.0 21.0 21.0 20.9 20.8 20.8 20.8 20.8 20.7 20.7 20.7 20.6 20.6 20.6 20.5 20.3 20.2 20.1 20.8 20.8 20.9 21.0 21.0 21.0 21.1 21.2 21.3 21.2 21.1 21.0 21.0 20.9 20.9 20.9 20.8 20.8 20.7 20.7 20.6 20.6 20.5 20.3 20.2 20.1 20.9 21.0 21.1 21.2 21.2 21.2 21.3 21.5 21.5 21.4 21.2 21.1 21.1 21.0 21.0 20.9 20.9 20.8 20.8 20.7 20.7 20.6 20.5 20.3 20.1 20.1 21.0 21.1 21.3 21.3 21.4 21.5 21.6 21.7 21.7 21.6 21.4 21.3 21.2 21.2 21.1 21.0 21.0 20.9 20.9 20.8 20.7 20.6 20.5 20.3 20.1 20.1 21.1 21.3 21.4 21.5 21.6 21.7 21.9 22.0 21.9 21.7 21.6 21.5 21.4 21.3 21.2 21.2 21.1 21.0 20.9 20.9 20.8 20.7 20.5 20.3 20.1 20.1 21.3 21.4 21.6 21.7 21.9 22.0 22.2 22.3 22.2 22.0 21.8 21.7 21.6 21.5 21.4 21.3 21.2 21.1 21.0 21.0 20.8 20.7 20.5 20.3 20.1 20.1 21.5 21.7 21.8 22.0 22.1 22.4 22.6 22.7 22.5 22.3 22.1 21.9 21.8 21.7 21.5 21.4 21.3 21.2 21.1 21.0 20.9 20.7 20.5 20.3 20.1 20.1 21.6 21.8 22.1 22.3 22.7 23.0 23.2 23.2 22.9 22.6 22.4 22.2 22.0 21.9 21.7 21.6 21.4 21.3 21.2 21.1 20.9 20.7 20.5 20.3 20.1 20.1 21.9 22.2 22.4 22.6 23.0 23.4 