<?xml version="1.0"?>
<VTKFile type="PolyData" version="1.0" byte_order="LittleEndian" header_type="UInt64">
<PolyData>
<Piece NumberOfPoints="3" NumberOfVerts="0" NumberOfLines="0" NumberOfPolys="0">
    <Points>
        <DataArray type="Float32" NumberOfComponents="3" format="ascii">
        0.2000 2.0000 1.8000 5.0000 2.0000 1.8000 12.2000 10.6400 1.8000 
        </DataArray>
    </Points>
    <PointData>
        <DataArray type="Float32" Name="tag" format="ascii">
            5.0000 9.0000 13.0000 
         </DataArray>
        <DataArray type="Float32" Name="PARTICLE TEMPERATURE(C)" format="ascii">
            20.7001 21.7163 49.5965 
         </DataArray>
        <DataArray type="Float32" Name="PARTICLE DIAMETER(mu-m)" format="ascii">
            20000.0000 20000.0000 20000.0000 
         </DataArray>
        <DataArray type="Float32" Name="PARTICLE AGE(s)" format="ascii">
            48.0013 48.0013 48.0013 
         </DataArray>
    </PointData>
</Piece>
</PolyData>
</VTKFile>