<?xml version="1.0"?>
<VTKFile type="PolyData" version="1.0" byte_order="LittleEndian" header_type="UInt64">
<PolyData>
<Piece NumberOfPoints="19" NumberOfVerts="0" NumberOfLines="0" NumberOfPolys="0">
    <Points>
        <DataArray type="Float32" NumberOfComponents="3" format="ascii">
        14.4622 6.6873 6.9254 14.2178 7.3909 6.6626 14.1680 7.8226 5.9099 14.3447 8.0496 6.3089 13.5392 7.8182 6.8204 14.4052 7.0835 6.7550 13.6940 8.1290 6.6828 13.6415 8.1835 6.6936 14.6442 8.6047 5.6922 14.3385 8.2386 5.9351 14.0521 8.0124 6.7778 14.8011 9.0264 5.1071 13.5402 8.0941 6.8033 13.9961 6.8167 7.0250 14.3221 6.9406 7.0431 12.7755 5.9662 8.0160 13.3681 7.8713 7.1794 13.4537 7.2539 7.5763 14.4335 7.6586 7.2925 
        </DataArray>
    </Points>
    <PointData>
        <DataArray type="Float32" Name="tag" format="ascii">
            19307.0000 21911.0000 29411.0000 21751.0000 15139.0000 30607.0000 18383.0000 20847.0000 26219.0000 26923.0000 18851.0000 23767.0000 28435.0000 33571.0000 33583.0000 25915.0000 29691.0000 21271.0000 14587.0000 
         </DataArray>
    </PointData>
</Piece>
</PolyData>
</VTKFile>